 argument  1 = mol4.nw



============================== echo of input deck ==============================
echo

start molecule

title "mol4"
charge 0

geometry units angstroms print xyz autosym
   C       -0.63451        2.92541        0.00185
   C        0.39161        2.08774       -0.17039
   C        1.79514        2.43433       -0.14753
   C        2.31523        3.66086       -0.08772
   F        3.64834        3.84806       -0.08242
   H        0.18677        1.03005       -0.33316
   H        2.48570        1.59424       -0.19869
   H        1.79529        4.60581       -0.03824
  Cl       -2.26678        2.39892       -0.03354
   H       -0.55942        3.99011        0.17628
end

basis
  * library 6-31G*
end

task scf optimize
================================================================================


                                         
                                         


              Northwest Computational Chemistry Package (NWChem) 6.6
              ------------------------------------------------------


                    Environmental Molecular Sciences Laboratory
                       Pacific Northwest National Laboratory
                                Richland, WA 99352

                              Copyright (c) 1994-2015
                       Pacific Northwest National Laboratory
                            Battelle Memorial Institute

             NWChem is an open-source computational chemistry package
                        distributed under the terms of the
                      Educational Community License (ECL) 2.0
             A copy of the license is included with this distribution
                              in the LICENSE.TXT file

                                  ACKNOWLEDGMENT
                                  --------------

            This software and its documentation were developed at the
            EMSL at Pacific Northwest National Laboratory, a multiprogram
            national laboratory, operated for the U.S. Department of Energy
            by Battelle under Contract Number DE-AC05-76RL01830. Support
            for this work was provided by the Department of Energy Office
            of Biological and Environmental Research, Office of Basic
            Energy Sciences, and the Office of Advanced Scientific Computing.


           Job information
           ---------------

    hostname        = evandell
    program         = nwchem
    date            = Thu Dec  1 15:01:38 2016

    compiled        = Mon_Feb_15_08:24:17_2016
    source          = /build/nwchem-MF0R1k/nwchem-6.6+r27746
    nwchem branch   = 6.6
    nwchem revision = 27746
    ga revision     = 10594
    input           = mol4.nw
    prefix          = molecule.
    data base       = ./molecule.db
    status          = startup
    nproc           =        1
    time left       =     -1s



           Memory information
           ------------------

    heap     =   13107194 doubles =    100.0 Mbytes
    stack    =   13107199 doubles =    100.0 Mbytes
    global   =   26214400 doubles =    200.0 Mbytes (distinct from heap & stack)
    total    =   52428793 doubles =    400.0 Mbytes
    verify   = yes
    hardfail = no 


           Directory information
           ---------------------

  0 permanent = .
  0 scratch   = .




                                NWChem Input Module
                                -------------------


                                       mol4
                                       ----

 Scaling coordinates for geometry "geometry" by  1.889725989
 (inverse scale =  0.529177249)

 C1  symmetry detected

          ------
          auto-z
          ------


                             Geometry "geometry" -> ""
                             -------------------------

 Output coordinates in angstroms (scale by  1.889725989 to convert to a.u.)

  No.       Tag          Charge          X              Y              Z
 ---- ---------------- ---------- -------------- -------------- --------------
    1 C                    6.0000     0.31430955     0.98834815     0.03318575
    2 C                    6.0000    -0.73787219     0.16698355    -0.01734818
    3 C                    6.0000    -0.70075073    -1.27795383     0.01900627
    4 C                    6.0000     0.38448284    -2.05158845    -0.02794331
    5 F                    9.0000     0.28014157    -3.39334202     0.00468274
    6 H                    1.0000    -1.73796197     0.59498885    -0.07893975
    7 H                    1.0000    -1.67022122    -1.76984336     0.07742996
    8 H                    1.0000     1.41888400    -1.74904759    -0.09274796
    9 Cl                  17.0000     0.15039192     2.69550890    -0.00531980
   10 H                    1.0000     1.35034562     0.68559242     0.10114643

      Atomic Mass 
      ----------- 

      C                 12.000000
      F                 18.998400
      H                  1.007825
      Cl                34.968850


 Effective nuclear repulsion energy (a.u.)     245.8120542216

            Nuclear Dipole moment (a.u.) 
            ----------------------------
        X                 Y               Z
 ---------------- ---------------- ----------------
    -0.0000000000     0.0000000000    -0.0000000000



                                Z-matrix (autoz)
                                -------- 

 Units are Angstrom for bonds and degrees for angles

      Type          Name      I     J     K     L     M      Value
      ----------- --------  ----- ----- ----- ----- ----- ----------
    1 Stretch                  1     2                       1.33577
    2 Stretch                  1     9                       1.71544
    3 Stretch                  1    10                       1.08150
    4 Stretch                  2     3                       1.44587
    5 Stretch                  2     6                       1.08957
    6 Stretch                  3     4                       1.33358
    7 Stretch                  3     7                       1.08869
    8 Stretch                  4     5                       1.34620
    9 Stretch                  4     8                       1.07968
   10 Bend                     1     2     3               126.39354
   11 Bend                     1     2     6               118.92089
   12 Bend                     2     1     9               122.39913
   13 Bend                     2     1    10               125.79055
   14 Bend                     2     3     4               126.85198
   15 Bend                     2     3     7               115.46841
   16 Bend                     3     2     6               114.68025
   17 Bend                     3     4     5               120.94892
   18 Bend                     3     4     8               128.25769
   19 Bend                     4     3     7               117.67406
   20 Bend                     5     4     8               110.79338
   21 Bend                     9     1    10               111.81032
   22 Torsion                  1     2     3     4          -7.36262
   23 Torsion                  1     2     3     7         173.52007
   24 Torsion                  2     3     4     5        -179.51547
   25 Torsion                  2     3     4     8           0.52432
   26 Torsion                  3     2     1     9        -179.51026
   27 Torsion                  3     2     1    10           0.51268
   28 Torsion                  4     3     2     6         173.49131
   29 Torsion                  5     4     3     7          -0.41532
   30 Torsion                  6     2     1     9          -0.39674
   31 Torsion                  6     2     1    10         179.62620
   32 Torsion                  6     2     3     7          -5.62600
   33 Torsion                  7     3     4     8         179.62446


            XYZ format geometry
            -------------------
    10
 geometry
 C                     0.31430955     0.98834815     0.03318575
 C                    -0.73787219     0.16698355    -0.01734818
 C                    -0.70075073    -1.27795383     0.01900627
 C                     0.38448284    -2.05158845    -0.02794331
 F                     0.28014157    -3.39334202     0.00468274
 H                    -1.73796197     0.59498885    -0.07893975
 H                    -1.67022122    -1.76984336     0.07742996
 H                     1.41888400    -1.74904759    -0.09274796
 Cl                    0.15039192     2.69550890    -0.00531980
 H                     1.35034562     0.68559242     0.10114643

 ==============================================================================
                                internuclear distances
 ------------------------------------------------------------------------------
       center one      |      center two      | atomic units |  angstroms
 ------------------------------------------------------------------------------
    2 C                |   1 C                |     2.52424  |     1.33577
    3 C                |   2 C                |     2.73230  |     1.44587
    4 C                |   3 C                |     2.52011  |     1.33358
    5 F                |   4 C                |     2.54395  |     1.34620
    6 H                |   2 C                |     2.05899  |     1.08957
    7 H                |   3 C                |     2.05732  |     1.08869
    8 H                |   4 C                |     2.04031  |     1.07968
    9 Cl               |   1 C                |     3.24172  |     1.71544
   10 H                |   1 C                |     2.04375  |     1.08150
 ------------------------------------------------------------------------------
                         number of included internuclear distances:          9
 ==============================================================================



 ==============================================================================
                                 internuclear angles
 ------------------------------------------------------------------------------
        center 1       |       center 2       |       center 3       |  degrees
 ------------------------------------------------------------------------------
    2 C                |   1 C                |   9 Cl               |   122.40
    2 C                |   1 C                |  10 H                |   125.79
    9 Cl               |   1 C                |  10 H                |   111.81
    1 C                |   2 C                |   3 C                |   126.39
    1 C                |   2 C                |   6 H                |   118.92
    3 C                |   2 C                |   6 H                |   114.68
    2 C                |   3 C                |   4 C                |   126.85
    2 C                |   3 C                |   7 H                |   115.47
    4 C                |   3 C                |   7 H                |   117.67
    3 C                |   4 C                |   5 F                |   120.95
    3 C                |   4 C                |   8 H                |   128.26
    5 F                |   4 C                |   8 H                |   110.79
 ------------------------------------------------------------------------------
                            number of included internuclear angles:         12
 ==============================================================================





 Summary of "ao basis" -> "" (cartesian)
 ------------------------------------------------------------------------------
       Tag                 Description            Shells   Functions and Types
 ---------------- ------------------------------  ------  ---------------------
 *                           6-31G*                   on all atoms 




                           NWChem Geometry Optimization
                           ----------------------------




                                       mol4


 maximum gradient threshold         (gmax) =   0.000450
 rms gradient threshold             (grms) =   0.000300
 maximum cartesian step threshold   (xmax) =   0.001800
 rms cartesian step threshold       (xrms) =   0.001200
 fixed trust radius                (trust) =   0.300000
 maximum step size to saddle      (sadstp) =   0.100000
 energy precision                  (eprec) =   1.0D-07
 maximum number of steps          (nptopt) =   20
 initial hessian option           (inhess) =    0
 line search option               (linopt) =    1
 hessian update option            (modupd) =    1
 saddle point option              (modsad) =    0
 initial eigen-mode to follow     (moddir) =    0
 initial variable to follow       (vardir) =    0
 follow first negative mode     (firstneg) =    T
 apply conjugacy                    (opcg) =    F
 source of zmatrix                         =   autoz   


          -------------------
          Energy Minimization
          -------------------


 Names of Z-matrix variables 
    1              2              3              4              5         
    6              7              8              9             10         
   11             12             13             14             15         
   16             17             18             19             20         
   21             22             23             24             25         
   26             27             28             29             30         
   31             32             33         

 Variables with the same non-blank name are constrained to be equal


 Using old Hessian from previous optimization

          --------
          Step   0
          --------


                         Geometry "geometry" -> "geometry"
                         ---------------------------------

 Output coordinates in angstroms (scale by  1.889725989 to convert to a.u.)

  No.       Tag          Charge          X              Y              Z
 ---- ---------------- ---------- -------------- -------------- --------------
    1 C                    6.0000     0.31430955     0.98834815     0.03318575
    2 C                    6.0000    -0.73787219     0.16698355    -0.01734818
    3 C                    6.0000    -0.70075073    -1.27795383     0.01900627
    4 C                    6.0000     0.38448284    -2.05158845    -0.02794331
    5 F                    9.0000     0.28014157    -3.39334202     0.00468274
    6 H                    1.0000    -1.73796197     0.59498885    -0.07893975
    7 H                    1.0000    -1.67022122    -1.76984336     0.07742996
    8 H                    1.0000     1.41888400    -1.74904759    -0.09274796
    9 Cl                  17.0000     0.15039192     2.69550890    -0.00531980
   10 H                    1.0000     1.35034562     0.68559242     0.10114643

      Atomic Mass 
      ----------- 

      C                 12.000000
      F                 18.998400
      H                  1.007825
      Cl                34.968850


 Effective nuclear repulsion energy (a.u.)     245.8120542216

            Nuclear Dipole moment (a.u.) 
            ----------------------------
        X                 Y               Z
 ---------------- ---------------- ----------------
    -0.0000000000     0.0000000000    -0.0000000000

                      Basis "ao basis" -> "ao basis" (cartesian)
                      -----
  C (Carbon)
  ----------
            Exponent  Coefficients 
       -------------- ---------------------------------------------------------
  1 S  3.04752490E+03  0.001835
  1 S  4.57369510E+02  0.014037
  1 S  1.03948690E+02  0.068843
  1 S  2.92101550E+01  0.232184
  1 S  9.28666300E+00  0.467941
  1 S  3.16392700E+00  0.362312

  2 S  7.86827240E+00 -0.119332
  2 S  1.88128850E+00 -0.160854
  2 S  5.44249300E-01  1.143456

  3 P  7.86827240E+00  0.068999
  3 P  1.88128850E+00  0.316424
  3 P  5.44249300E-01  0.744308

  4 S  1.68714400E-01  1.000000

  5 P  1.68714400E-01  1.000000

  6 D  8.00000000E-01  1.000000

  F (Fluorine)
  ------------
            Exponent  Coefficients 
       -------------- ---------------------------------------------------------
  1 S  7.00171309E+03  0.001820
  1 S  1.05136609E+03  0.013916
  1 S  2.39285690E+02  0.068405
  1 S  6.73974453E+01  0.233186
  1 S  2.15199573E+01  0.471267
  1 S  7.40310130E+00  0.356619

  2 S  2.08479528E+01 -0.108507
  2 S  4.80830834E+00 -0.146452
  2 S  1.34406986E+00  1.128689

  3 P  2.08479528E+01  0.071629
  3 P  4.80830834E+00  0.345912
  3 P  1.34406986E+00  0.722470

  4 S  3.58151393E-01  1.000000

  5 P  3.58151393E-01  1.000000

  6 D  8.00000000E-01  1.000000

  H (Hydrogen)
  ------------
            Exponent  Coefficients 
       -------------- ---------------------------------------------------------
  1 S  1.87311370E+01  0.033495
  1 S  2.82539370E+00  0.234727
  1 S  6.40121700E-01  0.813757

  2 S  1.61277800E-01  1.000000

  Cl (Chlorine)
  -------------
            Exponent  Coefficients 
       -------------- ---------------------------------------------------------
  1 S  2.51801000E+04  0.001833
  1 S  3.78035000E+03  0.014034
  1 S  8.60474000E+02  0.069097
  1 S  2.42145000E+02  0.237452
  1 S  7.73349000E+01  0.483034
  1 S  2.62470000E+01  0.339856

  2 S  4.91765000E+02 -0.002297
  2 S  1.16984000E+02 -0.030714
  2 S  3.74153000E+01 -0.112528
  2 S  1.37834000E+01  0.045016
  2 S  5.45215000E+00  0.589353
  2 S  2.22588000E+00  0.465206

  3 P  4.91765000E+02  0.003989
  3 P  1.16984000E+02  0.030318
  3 P  3.74153000E+01  0.129880
  3 P  1.37834000E+01  0.327951
  3 P  5.45215000E+00  0.453527
  3 P  2.22588000E+00  0.252154

  4 S  3.18649000E+00 -0.251830
  4 S  1.14427000E+00  0.061589
  4 S  4.20377000E-01  1.060180

  5 P  3.18649000E+00 -0.014299
  5 P  1.14427000E+00  0.323572
  5 P  4.20377000E-01  0.743507

  6 S  1.42657000E-01  1.000000

  7 P  1.42657000E-01  1.000000

  8 D  7.50000000E-01  1.000000



 Summary of "ao basis" -> "ao basis" (cartesian)
 ------------------------------------------------------------------------------
       Tag                 Description            Shells   Functions and Types
 ---------------- ------------------------------  ------  ---------------------
 C                           6-31G*                  6       15   3s2p1d
 F                           6-31G*                  6       15   3s2p1d
 H                           6-31G*                  2        2   2s
 Cl                          6-31G*                  8       19   4s3p1d


                                 NWChem SCF Module
                                 -----------------


                                       mol4



  ao basis        = "ao basis"
  functions       =   102
  atoms           =    10
  closed shells   =    27
  open shells     =     0
  charge          =   0.00
  wavefunction    = RHF 
  input vectors   = atomic
  output vectors  = ./molecule.movecs
  use symmetry    = F
  symmetry adapt  = F


 Summary of "ao basis" -> "ao basis" (cartesian)
 ------------------------------------------------------------------------------
       Tag                 Description            Shells   Functions and Types
 ---------------- ------------------------------  ------  ---------------------
 C                           6-31G*                  6       15   3s2p1d
 F                           6-31G*                  6       15   3s2p1d
 H                           6-31G*                  2        2   2s
 Cl                          6-31G*                  8       19   4s3p1d



 Forming initial guess at       0.1s


      Superposition of Atomic Density Guess
      -------------------------------------

 Sum of atomic energies:        -711.45686149

      Non-variational initial energy
      ------------------------------

 Total energy =    -714.347170
 1-e energy   =   -1467.068753
 2-e energy   =     506.909529
 HOMO         =      -0.212686
 LUMO         =      -0.003503


 Starting SCF solution at       0.7s



 ----------------------------------------------
         Quadratically convergent ROHF

 Convergence threshold     :          1.000E-04
 Maximum no. of iterations :           30
 Final Fock-matrix accuracy:          1.000E-07
 ----------------------------------------------


 Integral file          = ./molecule.aoints.0
 Record size in doubles =    65536    No. of integs per rec  =    43688
 Max. records in memory =        0    Max. records in file   =  1613228
 No. of bits per label  =        8    No. of bits per value  =       64


 #quartets = 4.396D+05 #integrals = 8.873D+06 #direct =  0.0% #cached =100.0%


              iter       energy          gnorm     gmax       time
             ----- ------------------- --------- --------- --------
                 1     -712.5786421439  1.01D+00  1.74D-01      2.5
                 2     -712.6453115959  4.84D-01  8.60D-02      2.8
                 3     -712.6594326521  2.70D-02  6.07D-03      3.4
                 4     -712.6595288847  3.19D-04  4.11D-05      4.2
                 5     -712.6595288958  4.51D-06  1.37D-06      4.8


       Final RHF  results 
       ------------------ 

         Total SCF energy =   -712.659528895768
      One-electron energy =  -1469.507209105081
      Two-electron energy =    511.035625987734
 Nuclear repulsion energy =    245.812054221579

        Time for solution =      4.2s


             Final eigenvalues
             -----------------

              1      
    1 -104.8311
    2  -26.3151
    3  -11.3400
    4  -11.3043
    5  -11.2672
    6  -11.2556
    7  -10.5652
    8   -8.0346
    9   -8.0312
   10   -8.0312
   11   -1.6247
   12   -1.1715
   13   -1.0973
   14   -0.9893
   15   -0.8650
   16   -0.7867
   17   -0.7374
   18   -0.6965
   19   -0.6879
   20   -0.6348
   21   -0.6141
   22   -0.5548
   23   -0.5388
   24   -0.5219
   25   -0.4560
   26   -0.4410
   27   -0.3249
   28    0.0976
   29    0.1981
   30    0.2257
   31    0.2541
   32    0.2778
   33    0.3063
   34    0.3273
   35    0.3759
   36    0.4403
   37    0.5134

                       ROHF Final Molecular Orbital Analysis
                       -------------------------------------

 Vector   12  Occ=2.000000D+00  E=-1.171454D+00
              MO Center=  5.5D-02,  1.6D+00,  5.8D-03, r^2= 2.0D+00
   Bfn.  Coefficient  Atom+Function         Bfn.  Coefficient  Atom+Function  
  ----- ------------  ---------------      ----- ------------  ---------------
    87      0.505013   9 Cl s                83     -0.260041   9 Cl s         
     2      0.230775   1 C  s                91      0.182941   9 Cl s         
     6      0.180326   1 C  s                17      0.160533   2 C  s         

 Vector   13  Occ=2.000000D+00  E=-1.097258D+00
              MO Center= -2.6D-01, -3.9D-01, -1.4D-03, r^2= 3.7D+00
   Bfn.  Coefficient  Atom+Function         Bfn.  Coefficient  Atom+Function  
  ----- ------------  ---------------      ----- ------------  ---------------
    87      0.327595   9 Cl s                32     -0.269744   3 C  s         
    47     -0.197007   4 C  s                36     -0.195566   3 C  s         
    17     -0.182860   2 C  s                83     -0.166412   9 Cl s         

 Vector   14  Occ=2.000000D+00  E=-9.893164D-01
              MO Center= -9.2D-02, -2.1D-01, -3.1D-03, r^2= 4.2D+00
   Bfn.  Coefficient  Atom+Function         Bfn.  Coefficient  Atom+Function  
  ----- ------------  ---------------      ----- ------------  ---------------
    87      0.306521   9 Cl s                47      0.229741   4 C  s         
    17     -0.223888   2 C  s                 2     -0.172211   1 C  s         
    51      0.166366   4 C  s                 6     -0.159723   1 C  s         
    21     -0.159643   2 C  s                91      0.157052   9 Cl s         
    83     -0.152758   9 Cl s         

 Vector   15  Occ=2.000000D+00  E=-8.650320D-01
              MO Center= -1.3D-02, -9.5D-01,  1.1D-03, r^2= 4.5D+00
   Bfn.  Coefficient  Atom+Function         Bfn.  Coefficient  Atom+Function  
  ----- ------------  ---------------      ----- ------------  ---------------
    64      0.211613   5 F  py               47      0.189968   4 C  s         
    87     -0.185413   9 Cl s                 2      0.183513   1 C  s         
     6      0.183980   1 C  s                32     -0.168912   3 C  s         

 Vector   16  Occ=2.000000D+00  E=-7.866943D-01
              MO Center=  9.4D-02, -7.3D-01,  1.9D-03, r^2= 4.9D+00
   Bfn.  Coefficient  Atom+Function         Bfn.  Coefficient  Atom+Function  
  ----- ------------  ---------------      ----- ------------  ---------------
    63      0.220493   5 F  px               48      0.214614   4 C  px        
     3     -0.168328   1 C  px               64      0.162427   5 F  py        
     6     -0.153285   1 C  s                17      0.153568   2 C  s         
     2     -0.152049   1 C  s         

 Vector   17  Occ=2.000000D+00  E=-7.373804D-01
              MO Center=  2.7D-01, -2.2D+00, -1.2D-02, r^2= 3.1D+00
   Bfn.  Coefficient  Atom+Function         Bfn.  Coefficient  Atom+Function  
  ----- ------------  ---------------      ----- ------------  ---------------
    64      0.358853   5 F  py               63     -0.266094   5 F  px        
    68      0.246619   5 F  py               49     -0.214964   4 C  py        
    48     -0.186025   4 C  px               67     -0.179393   5 F  px        
    19      0.150910   2 C  py        

 Vector   18  Occ=2.000000D+00  E=-6.965003D-01
              MO Center= -8.8D-02, -9.2D-01,  2.5D-02, r^2= 4.3D+00
   Bfn.  Coefficient  Atom+Function         Bfn.  Coefficient  Atom+Function  
  ----- ------------  ---------------      ----- ------------  ---------------
     3      0.256330   1 C  px               33     -0.253975   3 C  px        
    63      0.223740   5 F  px               64      0.203033   5 F  py        
    49     -0.198622   4 C  py               19     -0.164230   2 C  py        
    67      0.156330   5 F  px        

 Vector   19  Occ=2.000000D+00  E=-6.879209D-01
              MO Center=  2.8D-01, -3.2D+00,  5.4D-04, r^2= 6.8D-01
   Bfn.  Coefficient  Atom+Function         Bfn.  Coefficient  Atom+Function  
  ----- ------------  ---------------      ----- ------------  ---------------
    65      0.616345   5 F  pz               69      0.433268   5 F  pz        
    50      0.156447   4 C  pz        

 Vector   20  Occ=2.000000D+00  E=-6.348048D-01
              MO Center= -2.2D-01,  8.6D-02,  5.5D-03, r^2= 5.7D+00
   Bfn.  Coefficient  Atom+Function         Bfn.  Coefficient  Atom+Function  
  ----- ------------  ---------------      ----- ------------  ---------------
    89      0.334545   9 Cl py               34      0.234009   3 C  py        
     4     -0.211345   1 C  py               19     -0.200927   2 C  py        
    64      0.185427   5 F  py               63     -0.179534   5 F  px        
    91      0.171424   9 Cl s                18      0.151598   2 C  px        

 Vector   21  Occ=2.000000D+00  E=-6.141194D-01
              MO Center= -9.5D-02, -1.2D+00, -1.2D-02, r^2= 4.9D+00
   Bfn.  Coefficient  Atom+Function         Bfn.  Coefficient  Atom+Function  
  ----- ------------  ---------------      ----- ------------  ---------------
    63      0.398488   5 F  px               67      0.292270   5 F  px        
    18      0.277403   2 C  px                3     -0.196034   1 C  px        
    36      0.182668   3 C  s                76     -0.160265   6 H  s         
    48     -0.150188   4 C  px        

 Vector   22  Occ=2.000000D+00  E=-5.547993D-01
              MO Center= -2.8D-01, -1.1D+00,  4.2D-03, r^2= 4.2D+00
   Bfn.  Coefficient  Atom+Function         Bfn.  Coefficient  Atom+Function  
  ----- ------------  ---------------      ----- ------------  ---------------
    33      0.307216   3 C  px               48     -0.262988   4 C  px        
    63      0.213304   5 F  px               78     -0.207930   7 H  s         
    89     -0.192213   9 Cl py               37      0.187424   3 C  px        
    80     -0.174080   8 H  s                67      0.165480   5 F  px        
    79     -0.162792   7 H  s                 4      0.158046   1 C  py        

 Vector   23  Occ=2.000000D+00  E=-5.387628D-01
              MO Center= -1.9D-01,  6.4D-01, -2.5D-03, r^2= 4.4D+00
   Bfn.  Coefficient  Atom+Function         Bfn.  Coefficient  Atom+Function  
  ----- ------------  ---------------      ----- ------------  ---------------
    89      0.383662   9 Cl py               34     -0.236566   3 C  py        
    19      0.223292   2 C  py                4     -0.193641   1 C  py        
    76      0.173365   6 H  s                18     -0.161806   2 C  px        
    23      0.161972   2 C  py               63      0.154302   5 F  px        
     3      0.152793   1 C  px                8     -0.150006   1 C  py        

 Vector   24  Occ=2.000000D+00  E=-5.218779D-01
              MO Center=  3.7D-02,  1.7D+00,  2.7D-03, r^2= 2.7D+00
   Bfn.  Coefficient  Atom+Function         Bfn.  Coefficient  Atom+Function  
  ----- ------------  ---------------      ----- ------------  ---------------
    90      0.531826   9 Cl pz               94      0.265775   9 Cl pz        
     5      0.258843   1 C  pz               86     -0.206342   9 Cl pz        
    20      0.194196   2 C  pz                9      0.177164   1 C  pz        

 Vector   25  Occ=2.000000D+00  E=-4.560088D-01
              MO Center=  1.7D-01,  2.5D+00, -1.3D-04, r^2= 1.7D+00
   Bfn.  Coefficient  Atom+Function         Bfn.  Coefficient  Atom+Function  
  ----- ------------  ---------------      ----- ------------  ---------------
    88      0.700592   9 Cl px               92      0.396507   9 Cl px        
    84     -0.269109   9 Cl px        

 Vector   26  Occ=2.000000D+00  E=-4.409930D-01
              MO Center= -2.3D-01, -1.2D-02, -7.2D-04, r^2= 4.9D+00
   Bfn.  Coefficient  Atom+Function         Bfn.  Coefficient  Atom+Function  
  ----- ------------  ---------------      ----- ------------  ---------------
    90      0.398749   9 Cl pz               35     -0.300601   3 C  pz        
    94      0.237238   9 Cl pz               20     -0.223277   2 C  pz        
    39     -0.223047   3 C  pz               50     -0.220790   4 C  pz        
    24     -0.156183   2 C  pz               65      0.152790   5 F  pz        
    86     -0.152943   9 Cl pz        

 Vector   27  Occ=2.000000D+00  E=-3.249444D-01
              MO Center= -4.6D-02, -1.5D-01,  8.6D-04, r^2= 4.2D+00
   Bfn.  Coefficient  Atom+Function         Bfn.  Coefficient  Atom+Function  
  ----- ------------  ---------------      ----- ------------  ---------------
     5      0.303524   1 C  pz               50     -0.291310   4 C  pz        
    90     -0.287190   9 Cl pz                9      0.258248   1 C  pz        
    20      0.241716   2 C  pz               35     -0.232152   3 C  pz        
    39     -0.225473   3 C  pz               24      0.223449   2 C  pz        
    54     -0.212416   4 C  pz               94     -0.203962   9 Cl pz        

 Vector   28  Occ=0.000000D+00  E= 9.760713D-02
              MO Center= -4.2D-02, -4.1D-01, -1.6D-04, r^2= 3.7D+00
   Bfn.  Coefficient  Atom+Function         Bfn.  Coefficient  Atom+Function  
  ----- ------------  ---------------      ----- ------------  ---------------
     9      0.538194   1 C  pz               54      0.467559   4 C  pz        
    24     -0.408835   2 C  pz               50      0.314000   4 C  pz        
     5      0.304948   1 C  pz               39     -0.297589   3 C  pz        
    20     -0.238335   2 C  pz               35     -0.185116   3 C  pz        
    94     -0.169776   9 Cl pz        

 Vector   29  Occ=0.000000D+00  E= 1.981415D-01
              MO Center= -5.3D-02,  1.2D+00,  1.7D-03, r^2= 5.6D+00
   Bfn.  Coefficient  Atom+Function         Bfn.  Coefficient  Atom+Function  
  ----- ------------  ---------------      ----- ------------  ---------------
     6      1.227272   1 C  s                93      0.936577   9 Cl py        
    91     -0.760598   9 Cl s                 8      0.702471   1 C  py        
    77     -0.682443   6 H  s                21      0.610527   2 C  s         
    36      0.595358   3 C  s                79     -0.563730   7 H  s         
   102     -0.537136  10 H  s                81     -0.398693   8 H  s         

 Vector   30  Occ=0.000000D+00  E= 2.257122D-01
              MO Center=  4.4D-01, -4.9D-01,  5.4D-03, r^2= 5.9D+00
   Bfn.  Coefficient  Atom+Function         Bfn.  Coefficient  Atom+Function  
  ----- ------------  ---------------      ----- ------------  ---------------
   102      1.217538  10 H  s                81      1.146022   8 H  s         
    51     -0.891059   4 C  s                 6     -0.854706   1 C  s         
    77     -0.787458   6 H  s                79     -0.764911   7 H  s         
    36      0.655621   3 C  s                 7     -0.616362   1 C  px        
    52     -0.476643   4 C  px               21      0.384573   2 C  s         

 Vector   31  Occ=0.000000D+00  E= 2.540697D-01
              MO Center= -3.0D-01, -6.5D-01, -4.7D-03, r^2= 3.5D+00
   Bfn.  Coefficient  Atom+Function         Bfn.  Coefficient  Atom+Function  
  ----- ------------  ---------------      ----- ------------  ---------------
    39     -0.799657   3 C  pz               24      0.762574   2 C  pz        
    54      0.582510   4 C  pz                9     -0.536244   1 C  pz        
    35     -0.325960   3 C  pz               20      0.302080   2 C  pz        
    50      0.259274   4 C  pz                5     -0.200867   1 C  pz        
    21     -0.163706   2 C  s                36     -0.159439   3 C  s         

 Vector   32  Occ=0.000000D+00  E= 2.777818D-01
              MO Center= -5.2D-02, -4.8D-02,  3.7D-02, r^2= 7.3D+00
   Bfn.  Coefficient  Atom+Function         Bfn.  Coefficient  Atom+Function  
  ----- ------------  ---------------      ----- ------------  ---------------
   102      1.093064  10 H  s                79      1.076931   7 H  s         
    21     -0.915880   2 C  s                36     -0.864395   3 C  s         
     7     -0.830668   1 C  px               93      0.797110   9 Cl py        
    38      0.729386   3 C  py                8      0.714231   1 C  py        
    91     -0.591646   9 Cl s                52     -0.447110   4 C  px        

 Vector   33  Occ=0.000000D+00  E= 3.063338D-01
              MO Center=  5.1D-01, -4.4D-01, -6.4D-02, r^2= 6.8D+00
   Bfn.  Coefficient  Atom+Function         Bfn.  Coefficient  Atom+Function  
  ----- ------------  ---------------      ----- ------------  ---------------
    81      1.722038   8 H  s                51     -1.271744   4 C  s         
    77      1.228790   6 H  s                 6      1.054352   1 C  s         
    21     -0.874754   2 C  s               102     -0.777433  10 H  s         
    52     -0.705534   4 C  px               53     -0.646280   4 C  py        
    22      0.499344   2 C  px               93      0.468548   9 Cl py        

 Vector   34  Occ=0.000000D+00  E= 3.272881D-01
              MO Center= -1.5D+00, -1.0D+00,  1.5D-02, r^2= 5.1D+00
   Bfn.  Coefficient  Atom+Function         Bfn.  Coefficient  Atom+Function  
  ----- ------------  ---------------      ----- ------------  ---------------
    79      1.967516   7 H  s                37      1.686358   3 C  px        
    77     -1.503185   6 H  s                22     -1.326943   2 C  px        
    36     -1.058715   3 C  s                51     -0.958573   4 C  s         
    21      0.909078   2 C  s                 6      0.842523   1 C  s         
    53     -0.816986   4 C  py               81      0.633166   8 H  s         

 Vector   35  Occ=0.000000D+00  E= 3.758686D-01
              MO Center=  3.5D-01, -9.6D-01, -5.2D-03, r^2= 6.1D+00
   Bfn.  Coefficient  Atom+Function         Bfn.  Coefficient  Atom+Function  
  ----- ------------  ---------------      ----- ------------  ---------------
     6      1.374969   1 C  s               102     -1.200690  10 H  s         
    53      1.091376   4 C  py               77     -1.060796   6 H  s         
    22     -1.028756   2 C  px                8     -0.969361   1 C  py        
    66      0.918626   5 F  s                51     -0.723318   4 C  s         
    81      0.617805   8 H  s                68      0.457335   5 F  py        

 Vector   36  Occ=0.000000D+00  E= 4.402809D-01
              MO Center= -4.6D-01,  3.1D-01, -1.4D-02, r^2= 5.0D+00
   Bfn.  Coefficient  Atom+Function         Bfn.  Coefficient  Atom+Function  
  ----- ------------  ---------------      ----- ------------  ---------------
     6      2.565923   1 C  s                21     -2.282527   2 C  s         
    23     -2.249587   2 C  py               36     -2.252480   3 C  s         
     7     -2.234613   1 C  px               51      1.505943   4 C  s         
    22     -1.203840   2 C  px              102      0.989197  10 H  s         
     8     -0.708958   1 C  py               91     -0.659039   9 Cl s         

 Vector   37  Occ=0.000000D+00  E= 5.134486D-01
              MO Center= -1.2D-01,  2.6D-01, -7.7D-04, r^2= 6.0D+00
   Bfn.  Coefficient  Atom+Function         Bfn.  Coefficient  Atom+Function  
  ----- ------------  ---------------      ----- ------------  ---------------
    21      3.856000   2 C  s                38     -2.470872   3 C  py        
    36     -2.170898   3 C  s                 8      1.872877   1 C  py        
    22      1.722264   2 C  px               23     -1.711082   2 C  py        
     6     -1.247347   1 C  s                91     -1.244287   9 Cl s         
    53      1.186924   4 C  py               93      0.900034   9 Cl py        


------------------------------------------------------------
EAF file 0: "./molecule.aoints.0" size=106954752 bytes
------------------------------------------------------------
               write      read    awrite     aread      wait
               -----      ----    ------     -----      ----
     calls:      204        14         0      2842      2842
   data(b): 1.07e+08  7.34e+06  0.00e+00  1.49e+09
   time(s): 0.00e+00  0.00e+00  0.00e+00  0.00e+00  0.00e+00
rate(mb/s): 0.00e+00  0.00e+00
------------------------------------------------------------


 center of mass
 --------------
 x =   0.01888601 y =   0.02575101 z =  -0.00013039

 moments of inertia (a.u.)
 ------------------
        2007.347188284697          -0.000000000000          -0.000000000000
          -0.000000000000          97.998383754631           0.000000000000
          -0.000000000000           0.000000000000        2104.893901879619

  Mulliken analysis of the total density
  --------------------------------------

    Atom       Charge   Shell Charges
 -----------   ------   -------------------------------------------------------
    1 C    6     6.31   2.00  0.66  1.94  0.59  1.06  0.08
    2 C    6     6.13   2.00  0.67  2.00  0.49  0.93  0.06
    3 C    6     6.28   2.00  0.66  2.03  0.52  1.02  0.06
    4 C    6     5.76   2.00  0.67  1.86  0.44  0.70  0.09
    5 F    9     9.37   2.00  0.98  3.29  0.87  2.12  0.12
    6 H    1     0.77   0.52  0.25
    7 H    1     0.78   0.52  0.26
    8 H    1     0.80   0.53  0.27
    9 Cl  17    17.02   2.00  2.00  5.98  1.35  3.57  0.58  1.49  0.05
   10 H    1     0.77   0.52  0.25

       Multipole analysis of the density wrt the origin
       ------------------------------------------------

     L   x y z        total         open         nuclear
     -   - - -        -----         ----         -------
     0   0 0 0     -0.000000      0.000000     54.000000

     1   1 0 0      0.076686      0.000000     -0.000000
     1   0 1 0     -0.129900      0.000000      0.000000
     1   0 0 1     -0.007757      0.000000     -0.000000

     2   2 0 0    -26.793978      0.000000     65.816065
     2   1 1 0     -0.222738      0.000000      1.667623
     2   1 0 1      0.013604      0.000000      0.021685
     2   0 2 0    -38.562420      0.000000    982.928070
     2   0 1 1      0.036427      0.000000      0.137208
     2   0 0 2    -32.489039      0.000000      0.167854


 Parallel integral file used     204 records with       0 large values

                              NWChem Gradients Module
                              -----------------------


                                       mol4


  wavefunction    =   RHF     



                         RHF ENERGY GRADIENTS

    atom               coordinates                        gradient
                 x          y          z           x          y          z
   1 C       0.593959   1.867707   0.062712    0.009487   0.017866   0.000459
   2 C      -1.394376   0.315553  -0.032783   -0.009444  -0.030818  -0.000954
   3 C      -1.324227  -2.414983   0.035917   -0.010324   0.035524   0.000791
   4 C       0.726567  -3.876940  -0.052805    0.013935   0.004189  -0.000835
   5 F       0.529391  -6.412487   0.008849    0.000365  -0.017099  -0.000140
   6 H      -3.284272   1.124366  -0.149175   -0.011168   0.001246  -0.000455
   7 H      -3.156260  -3.344519   0.146321   -0.010467  -0.001361   0.000442
   8 H       2.681302  -3.305221  -0.175268    0.007424  -0.000498   0.000230
   9 Cl      0.284200   5.093773  -0.010053    0.001474  -0.010457   0.000655
  10 H       2.551783   1.295582   0.191139    0.008718   0.001408  -0.000193

                 ----------------------------------------
                 |  Time  |  1-e(secs)   |  2-e(secs)   |
                 ----------------------------------------
                 |  CPU   |       0.01   |       5.78   |
                 ----------------------------------------
                 |  WALL  |       0.01   |       7.10   |
                 ----------------------------------------

@ Step       Energy      Delta E   Gmax     Grms     Xrms     Xmax   Walltime
@ ---- ---------------- -------- -------- -------- -------- -------- --------
@    0    -712.65952890  0.0D+00  0.02548  0.00830  0.00000  0.00000     12.7
                                                                    



                                Z-matrix (autoz)
                                -------- 

 Units are Angstrom for bonds and degrees for angles

      Type          Name      I     J     K     L     M      Value     Gradient
      ----------- --------  ----- ----- ----- ----- ----- ---------- ----------
    1 Stretch                  1     2                       1.33577    0.02096
    2 Stretch                  1     9                       1.71544   -0.01056
    3 Stretch                  1    10                       1.08150    0.00795
    4 Stretch                  2     3                       1.44587   -0.02071
    5 Stretch                  2     6                       1.08957    0.01077
    6 Stretch                  3     4                       1.33358    0.02548
    7 Stretch                  3     7                       1.08869    0.00996
    8 Stretch                  4     5                       1.34620    0.01701
    9 Stretch                  4     8                       1.07968    0.00696
   10 Bend                     1     2     3               126.39354   -0.00124
   11 Bend                     1     2     6               118.92089    0.00239
   12 Bend                     2     1     9               122.39913   -0.00081
   13 Bend                     2     1    10               125.79055    0.00246
   14 Bend                     2     3     4               126.85198    0.00009
   15 Bend                     2     3     7               115.46841   -0.00197
   16 Bend                     3     2     6               114.68025   -0.00115
   17 Bend                     3     4     5               120.94892    0.00062
   18 Bend                     3     4     8               128.25769    0.00107
   19 Bend                     4     3     7               117.67406    0.00188
   20 Bend                     5     4     8               110.79338   -0.00169
   21 Bend                     9     1    10               111.81032   -0.00165
   22 Torsion                  1     2     3     4          -7.36262    0.00020
   23 Torsion                  1     2     3     7         173.52007    0.00024
   24 Torsion                  2     3     4     5        -179.51547    0.00030
   25 Torsion                  2     3     4     8           0.52432    0.00031
   26 Torsion                  3     2     1     9        -179.51026    0.00035
   27 Torsion                  3     2     1    10           0.51268    0.00037
   28 Torsion                  4     3     2     6         173.49131    0.00030
   29 Torsion                  5     4     3     7          -0.41532    0.00023
   30 Torsion                  6     2     1     9          -0.39674    0.00021
   31 Torsion                  6     2     1    10         179.62620    0.00024
   32 Torsion                  6     2     3     7          -5.62600    0.00034
   33 Torsion                  7     3     4     8         179.62446    0.00024

                                 NWChem SCF Module
                                 -----------------


                                       mol4



  ao basis        = "ao basis"
  functions       =   102
  atoms           =    10
  closed shells   =    27
  open shells     =     0
  charge          =   0.00
  wavefunction    = RHF 
  input vectors   = ./molecule.movecs
  output vectors  = ./molecule.movecs
  use symmetry    = F
  symmetry adapt  = F


 Summary of "ao basis" -> "ao basis" (cartesian)
 ------------------------------------------------------------------------------
       Tag                 Description            Shells   Functions and Types
 ---------------- ------------------------------  ------  ---------------------
 C                           6-31G*                  6       15   3s2p1d
 F                           6-31G*                  6       15   3s2p1d
 H                           6-31G*                  2        2   2s
 Cl                          6-31G*                  8       19   4s3p1d



 Forming initial guess at      12.7s


 Loading old vectors from job with title :

mol3


 Starting SCF solution at      12.8s



 ----------------------------------------------
         Quadratically convergent ROHF

 Convergence threshold     :          1.000E-04
 Maximum no. of iterations :           30
 Final Fock-matrix accuracy:          1.000E-07
 ----------------------------------------------


 Integral file          = ./molecule.aoints.0
 Record size in doubles =    65536    No. of integs per rec  =    43688
 Max. records in memory =        0    Max. records in file   =  1612818
 No. of bits per label  =        8    No. of bits per value  =       64


 #quartets = 4.401D+05 #integrals = 8.849D+06 #direct =  0.0% #cached =100.0%


              iter       energy          gnorm     gmax       time
             ----- ------------------- --------- --------- --------
                 1     -712.6609953980  1.08D-01  1.55D-02     13.1
                 2     -712.6620313038  6.61D-03  1.93D-03     13.9
                 3     -712.6620365677  3.88D-05  9.47D-06     15.4


       Final RHF  results 
       ------------------ 

         Total SCF energy =   -712.662036567750
      One-electron energy =  -1469.858821121570
      Two-electron energy =    511.182818225015
 Nuclear repulsion energy =    246.013966328806

        Time for solution =      4.7s


             Final eigenvalues
             -----------------

              1      
    1 -104.8305
    2  -26.3193
    3  -11.3356
    4  -11.3016
    5  -11.2654
    6  -11.2518
    7  -10.5642
    8   -8.0336
    9   -8.0302
   10   -8.0302
   11   -1.6368
   12   -1.1674
   13   -1.0965
   14   -0.9968
   15   -0.8649
   16   -0.7911
   17   -0.7466
   18   -0.6988
   19   -0.6963
   20   -0.6342
   21   -0.6166
   22   -0.5567
   23   -0.5348
   24   -0.5194
   25   -0.4560
   26   -0.4400
   27   -0.3314
   28    0.1056
   29    0.1955
   30    0.2307
   31    0.2556
   32    0.2781
   33    0.3124
   34    0.3257
   35    0.3839
   36    0.4464
   37    0.5089

                       ROHF Final Molecular Orbital Analysis
                       -------------------------------------

 Vector   12  Occ=2.000000D+00  E=-1.167395D+00
              MO Center=  3.8D-02,  1.5D+00,  3.5D-03, r^2= 2.1D+00
   Bfn.  Coefficient  Atom+Function         Bfn.  Coefficient  Atom+Function  
  ----- ------------  ---------------      ----- ------------  ---------------
    87      0.491895   9 Cl s                83     -0.253412   9 Cl s         
     2      0.232989   1 C  s                 6      0.183483   1 C  s         
    91      0.179261   9 Cl s                17      0.168888   2 C  s         

 Vector   13  Occ=2.000000D+00  E=-1.096451D+00
              MO Center= -2.2D-01, -4.1D-01, -2.8D-03, r^2= 3.9D+00
   Bfn.  Coefficient  Atom+Function         Bfn.  Coefficient  Atom+Function  
  ----- ------------  ---------------      ----- ------------  ---------------
    87      0.337820   9 Cl s                32     -0.266924   3 C  s         
    47     -0.207081   4 C  s                36     -0.193856   3 C  s         
    83     -0.171693   9 Cl s                17     -0.165419   2 C  s         

 Vector   14  Occ=2.000000D+00  E=-9.967679D-01
              MO Center= -1.0D-01, -6.3D-02, -3.0D-03, r^2= 4.3D+00
   Bfn.  Coefficient  Atom+Function         Bfn.  Coefficient  Atom+Function  
  ----- ------------  ---------------      ----- ------------  ---------------
    87      0.326367   9 Cl s                17     -0.228346   2 C  s         
    47      0.217133   4 C  s                 2     -0.174573   1 C  s         
    91      0.164835   9 Cl s                83     -0.162901   9 Cl s         
    21     -0.159401   2 C  s                 6     -0.158531   1 C  s         
    51      0.155203   4 C  s         

 Vector   15  Occ=2.000000D+00  E=-8.649439D-01
              MO Center= -9.2D-03, -1.2D+00,  5.5D-04, r^2= 4.4D+00
   Bfn.  Coefficient  Atom+Function         Bfn.  Coefficient  Atom+Function  
  ----- ------------  ---------------      ----- ------------  ---------------
    64      0.231484   5 F  py               47      0.189372   4 C  s         
    32     -0.173173   3 C  s                 2      0.169979   1 C  s         
     6      0.169953   1 C  s                87     -0.166195   9 Cl s         
    36     -0.150522   3 C  s                68      0.150623   5 F  py        

 Vector   16  Occ=2.000000D+00  E=-7.910910D-01
              MO Center=  6.8D-02, -6.3D-01,  4.3D-03, r^2= 4.9D+00
   Bfn.  Coefficient  Atom+Function         Bfn.  Coefficient  Atom+Function  
  ----- ------------  ---------------      ----- ------------  ---------------
    63      0.219587   5 F  px               48      0.204441   4 C  px        
     3     -0.170176   1 C  px                2     -0.161050   1 C  s         
     6     -0.160635   1 C  s                64      0.159692   5 F  py        
    17      0.157342   2 C  s               101     -0.153933  10 H  s         

 Vector   17  Occ=2.000000D+00  E=-7.466010D-01
              MO Center=  2.9D-01, -2.3D+00, -1.3D-02, r^2= 2.8D+00
   Bfn.  Coefficient  Atom+Function         Bfn.  Coefficient  Atom+Function  
  ----- ------------  ---------------      ----- ------------  ---------------
    64      0.369518   5 F  py               63     -0.265125   5 F  px        
    68      0.250778   5 F  py               49     -0.230348   4 C  py        
    48     -0.182913   4 C  px               67     -0.178302   5 F  px        

 Vector   18  Occ=2.000000D+00  E=-6.987911D-01
              MO Center= -1.1D-01, -9.8D-01,  2.9D-02, r^2= 4.2D+00
   Bfn.  Coefficient  Atom+Function         Bfn.  Coefficient  Atom+Function  
  ----- ------------  ---------------      ----- ------------  ---------------
    33     -0.256786   3 C  px                3      0.255097   1 C  px        
    63      0.244750   5 F  px               49     -0.191554   4 C  py        
    64      0.183887   5 F  py               19     -0.170832   2 C  py        
    67      0.171183   5 F  px        

 Vector   19  Occ=2.000000D+00  E=-6.962972D-01
              MO Center=  2.7D-01, -3.2D+00,  1.5D-03, r^2= 6.8D-01
   Bfn.  Coefficient  Atom+Function         Bfn.  Coefficient  Atom+Function  
  ----- ------------  ---------------      ----- ------------  ---------------
    65      0.614181   5 F  pz               69      0.430247   5 F  pz        
    50      0.160853   4 C  pz        

 Vector   20  Occ=2.000000D+00  E=-6.342342D-01
              MO Center= -2.2D-01,  1.2D-01,  5.7D-03, r^2= 5.6D+00
   Bfn.  Coefficient  Atom+Function         Bfn.  Coefficient  Atom+Function  
  ----- ------------  ---------------      ----- ------------  ---------------
    89      0.334893   9 Cl py               34      0.240473   3 C  py        
     4     -0.209256   1 C  py               19     -0.208778   2 C  py        
    63     -0.192171   5 F  px               91      0.171276   9 Cl s         
    64      0.167696   5 F  py        

 Vector   21  Occ=2.000000D+00  E=-6.165584D-01
              MO Center= -1.3D-01, -9.2D-01, -1.2D-02, r^2= 5.0D+00
   Bfn.  Coefficient  Atom+Function         Bfn.  Coefficient  Atom+Function  
  ----- ------------  ---------------      ----- ------------  ---------------
    63      0.370857   5 F  px               18      0.296448   2 C  px        
    67      0.272102   5 F  px                3     -0.210931   1 C  px        
    36      0.170825   3 C  s                76     -0.167638   6 H  s         

 Vector   22  Occ=2.000000D+00  E=-5.566654D-01
              MO Center= -2.3D-01, -1.3D+00, -1.4D-03, r^2= 3.8D+00
   Bfn.  Coefficient  Atom+Function         Bfn.  Coefficient  Atom+Function  
  ----- ------------  ---------------      ----- ------------  ---------------
    33      0.313530   3 C  px               48     -0.285438   4 C  px        
    63      0.239422   5 F  px               78     -0.202696   7 H  s         
    80     -0.187281   8 H  s                67      0.185564   5 F  px        
    37      0.182896   3 C  px               81     -0.165132   8 H  s         
    79     -0.160376   7 H  s         

 Vector   23  Occ=2.000000D+00  E=-5.347607D-01
              MO Center= -1.8D-01,  7.7D-01,  1.0D-03, r^2= 4.2D+00
   Bfn.  Coefficient  Atom+Function         Bfn.  Coefficient  Atom+Function  
  ----- ------------  ---------------      ----- ------------  ---------------
    89      0.403306   9 Cl py               34     -0.246378   3 C  py        
    19      0.233017   2 C  py                4     -0.206453   1 C  py        
    23      0.168685   2 C  py               76      0.164858   6 H  s         
     8     -0.161066   1 C  py               85     -0.158193   9 Cl py        

 Vector   24  Occ=2.000000D+00  E=-5.194409D-01
              MO Center=  3.5D-02,  1.7D+00, -1.2D-03, r^2= 2.7D+00
   Bfn.  Coefficient  Atom+Function         Bfn.  Coefficient  Atom+Function  
  ----- ------------  ---------------      ----- ------------  ---------------
    90      0.527454   9 Cl pz               94      0.265006   9 Cl pz        
     5      0.260912   1 C  pz               86     -0.204640   9 Cl pz        
    20      0.198729   2 C  pz                9      0.178488   1 C  pz        

 Vector   25  Occ=2.000000D+00  E=-4.560446D-01
              MO Center=  1.7D-01,  2.5D+00, -6.2D-03, r^2= 1.7D+00
   Bfn.  Coefficient  Atom+Function         Bfn.  Coefficient  Atom+Function  
  ----- ------------  ---------------      ----- ------------  ---------------
    88      0.702893   9 Cl px               92      0.397070   9 Cl px        
    84     -0.270119   9 Cl px        

 Vector   26  Occ=2.000000D+00  E=-4.399853D-01
              MO Center= -2.1D-01,  7.9D-03, -2.1D-03, r^2= 5.0D+00
   Bfn.  Coefficient  Atom+Function         Bfn.  Coefficient  Atom+Function  
  ----- ------------  ---------------      ----- ------------  ---------------
    90      0.403522   9 Cl pz               35     -0.298690   3 C  pz        
    94      0.239974   9 Cl pz               39     -0.221807   3 C  pz        
    50     -0.222694   4 C  pz               20     -0.217798   2 C  pz        
    65      0.155686   5 F  pz               86     -0.154816   9 Cl pz        
    24     -0.153122   2 C  pz        

 Vector   27  Occ=2.000000D+00  E=-3.314035D-01
              MO Center= -5.7D-02, -1.5D-01,  9.1D-04, r^2= 4.2D+00
   Bfn.  Coefficient  Atom+Function         Bfn.  Coefficient  Atom+Function  
  ----- ------------  ---------------      ----- ------------  ---------------
     5      0.302167   1 C  pz               90     -0.288511   9 Cl pz        
    50     -0.286823   4 C  pz                9      0.251981   1 C  pz        
    20      0.243314   2 C  pz               35     -0.238735   3 C  pz        
    39     -0.225838   3 C  pz               24      0.218857   2 C  pz        
    54     -0.205100   4 C  pz               94     -0.201875   9 Cl pz        

 Vector   28  Occ=0.000000D+00  E= 1.055927D-01
              MO Center= -5.8D-02, -4.0D-01,  1.2D-04, r^2= 3.7D+00
   Bfn.  Coefficient  Atom+Function         Bfn.  Coefficient  Atom+Function  
  ----- ------------  ---------------      ----- ------------  ---------------
     9      0.544615   1 C  pz               54      0.471877   4 C  pz        
    24     -0.427381   2 C  pz               50      0.310393   4 C  pz        
    39     -0.306295   3 C  pz                5      0.302436   1 C  pz        
    20     -0.241738   2 C  pz               35     -0.180788   3 C  pz        
    94     -0.163654   9 Cl pz        

 Vector   29  Occ=0.000000D+00  E= 1.954542D-01
              MO Center=  5.7D-02,  1.4D+00, -4.3D-04, r^2= 5.2D+00
   Bfn.  Coefficient  Atom+Function         Bfn.  Coefficient  Atom+Function  
  ----- ------------  ---------------      ----- ------------  ---------------
     6      1.226992   1 C  s                93      0.952564   9 Cl py        
    91     -0.753613   9 Cl s                 8      0.724158   1 C  py        
    77     -0.611146   6 H  s                21      0.546866   2 C  s         
    36      0.541767   3 C  s               102     -0.536029  10 H  s         
    79     -0.482944   7 H  s                81     -0.430212   8 H  s         

 Vector   30  Occ=0.000000D+00  E= 2.307290D-01
              MO Center=  4.0D-01, -5.1D-01,  3.7D-03, r^2= 5.8D+00
   Bfn.  Coefficient  Atom+Function         Bfn.  Coefficient  Atom+Function  
  ----- ------------  ---------------      ----- ------------  ---------------
   102      1.223414  10 H  s                81      1.168810   8 H  s         
    51     -0.927340   4 C  s                77     -0.818380   6 H  s         
    79     -0.792679   7 H  s                 6     -0.784981   1 C  s         
    36      0.700388   3 C  s                 7     -0.620629   1 C  px        
    52     -0.469914   4 C  px               21      0.414321   2 C  s         

 Vector   31  Occ=0.000000D+00  E= 2.555978D-01
              MO Center= -2.8D-01, -6.8D-01, -5.2D-03, r^2= 3.6D+00
   Bfn.  Coefficient  Atom+Function         Bfn.  Coefficient  Atom+Function  
  ----- ------------  ---------------      ----- ------------  ---------------
    39     -0.796346   3 C  pz               24      0.750534   2 C  pz        
    54      0.599566   4 C  pz                9     -0.539819   1 C  pz        
    35     -0.323662   3 C  pz               20      0.298574   2 C  pz        
    50      0.262781   4 C  pz                5     -0.200676   1 C  pz        
    21     -0.170946   2 C  s                36     -0.167617   3 C  s         

 Vector   32  Occ=0.000000D+00  E= 2.781304D-01
              MO Center= -1.1D-01, -2.0D-01,  3.8D-02, r^2= 7.1D+00
   Bfn.  Coefficient  Atom+Function         Bfn.  Coefficient  Atom+Function  
  ----- ------------  ---------------      ----- ------------  ---------------
   102     -1.116138  10 H  s                79     -1.105264   7 H  s         
    21      1.022096   2 C  s                36      0.933613   3 C  s         
     7      0.824933   1 C  px               38     -0.777856   3 C  py        
    93     -0.706521   9 Cl py                8     -0.674981   1 C  py        
    77     -0.537117   6 H  s                91      0.503190   9 Cl s         

 Vector   33  Occ=0.000000D+00  E= 3.123831D-01
              MO Center=  5.0D-01, -4.5D-01, -6.6D-02, r^2= 6.7D+00
   Bfn.  Coefficient  Atom+Function         Bfn.  Coefficient  Atom+Function  
  ----- ------------  ---------------      ----- ------------  ---------------
    81      1.746361   8 H  s                51     -1.313151   4 C  s         
    77      1.237745   6 H  s                 6      1.120040   1 C  s         
    21     -0.892358   2 C  s               102     -0.810774  10 H  s         
    53     -0.738042   4 C  py               52     -0.689625   4 C  px        
    23     -0.472209   2 C  py               22      0.462768   2 C  px        

 Vector   34  Occ=0.000000D+00  E= 3.257145D-01
              MO Center= -1.6D+00, -1.0D+00,  1.6D-02, r^2= 4.9D+00
   Bfn.  Coefficient  Atom+Function         Bfn.  Coefficient  Atom+Function  
  ----- ------------  ---------------      ----- ------------  ---------------
    79      2.025634   7 H  s                37      1.684788   3 C  px        
    77     -1.556649   6 H  s                22     -1.340350   2 C  px        
    36     -1.066483   3 C  s                51     -0.928079   4 C  s         
    21      0.875954   2 C  s                 6      0.847923   1 C  s         
    53     -0.793974   4 C  py               81      0.575581   8 H  s         

 Vector   35  Occ=0.000000D+00  E= 3.839074D-01
              MO Center=  4.0D-01, -9.8D-01, -4.6D-03, r^2= 6.0D+00
   Bfn.  Coefficient  Atom+Function         Bfn.  Coefficient  Atom+Function  
  ----- ------------  ---------------      ----- ------------  ---------------
     6      1.480894   1 C  s               102     -1.234432  10 H  s         
    53      1.141867   4 C  py               22     -1.027843   2 C  px        
    77     -1.032513   6 H  s                 8     -0.978447   1 C  py        
    66      0.977657   5 F  s                51     -0.758367   4 C  s         
    81      0.659075   8 H  s                68      0.464607   5 F  py        

 Vector   36  Occ=0.000000D+00  E= 4.464158D-01
              MO Center= -4.7D-01,  3.2D-01, -1.6D-02, r^2= 5.1D+00
   Bfn.  Coefficient  Atom+Function         Bfn.  Coefficient  Atom+Function  
  ----- ------------  ---------------      ----- ------------  ---------------
     6      2.600240   1 C  s                36     -2.352848   3 C  s         
    23     -2.332336   2 C  py               21     -2.315227   2 C  s         
     7     -2.267376   1 C  px               51      1.635169   4 C  s         
    22     -1.145129   2 C  px              102      1.048009  10 H  s         
    91     -0.722365   9 Cl s                37     -0.713688   3 C  px        

 Vector   37  Occ=0.000000D+00  E= 5.088765D-01
              MO Center= -1.0D-01,  1.2D-01, -1.6D-03, r^2= 6.2D+00
   Bfn.  Coefficient  Atom+Function         Bfn.  Coefficient  Atom+Function  
  ----- ------------  ---------------      ----- ------------  ---------------
    21      3.841819   2 C  s                38     -2.404414   3 C  py        
    36     -2.102259   3 C  s                 8      1.908669   1 C  py        
    22      1.797804   2 C  px               23     -1.587782   2 C  py        
     6     -1.429171   1 C  s                53      1.294934   4 C  py        
    91     -1.040610   9 Cl s                77      0.888155   6 H  s         


------------------------------------------------------------
EAF file 0: "./molecule.aoints.0" size=122159104 bytes
------------------------------------------------------------
               write      read    awrite     aread      wait
               -----      ----    ------     -----      ----
     calls:      203         9         0      1818      1818
   data(b): 1.06e+08  4.72e+06  0.00e+00  9.53e+08
   time(s): 0.00e+00  0.00e+00  0.00e+00  0.00e+00  0.00e+00
rate(mb/s): 0.00e+00  0.00e+00
------------------------------------------------------------


 center of mass
 --------------
 x =   0.01829512 y =   0.03671980 z =  -0.00289827

 moments of inertia (a.u.)
 ------------------
        2019.453633718630          -1.462545737742           0.112547067974
          -1.462545737742          95.632603590284           2.472476387420
           0.112547067974           2.472476387420        2114.559256985624

  Mulliken analysis of the total density
  --------------------------------------

    Atom       Charge   Shell Charges
 -----------   ------   -------------------------------------------------------
    1 C    6     6.31   2.00  0.66  1.94  0.59  1.05  0.08
    2 C    6     6.13   2.00  0.67  2.00  0.48  0.92  0.06
    3 C    6     6.28   2.00  0.66  2.03  0.51  1.02  0.06
    4 C    6     5.75   2.00  0.67  1.88  0.43  0.68  0.09
    5 F    9     9.36   2.00  0.98  3.30  0.86  2.11  0.12
    6 H    1     0.77   0.53  0.25
    7 H    1     0.78   0.52  0.26
    8 H    1     0.81   0.54  0.27
    9 Cl  17    17.03   2.00  2.00  5.98  1.35  3.57  0.58  1.51  0.05
   10 H    1     0.77   0.53  0.25

       Multipole analysis of the density wrt the origin
       ------------------------------------------------

     L   x y z        total         open         nuclear
     -   - - -        -----         ----         -------
     0   0 0 0     -0.000000      0.000000     54.000000

     1   1 0 0      0.070312      0.000000     -0.028952
     1   0 1 0     -0.213596      0.000000      0.545188
     1   0 0 1     -0.007389      0.000000     -0.140938

     2   2 0 0    -26.956943      0.000000     64.088578
     2   1 1 0     -0.249456      0.000000      2.463219
     2   1 0 1      0.018458      0.000000     -0.034894
     2   0 2 0    -38.214076      0.000000    988.990206
     2   0 1 1      0.048965      0.000000     -1.047325
     2   0 0 2    -32.411724      0.000000      0.193516


 Parallel integral file used     203 records with       0 large values

 Line search: 
     step= 1.00 grad=-5.0D-03 hess= 2.5D-03 energy=   -712.662037 mode=accept  
 new step= 1.00                   predicted energy=   -712.662037

          --------
          Step   1
          --------


                         Geometry "geometry" -> "geometry"
                         ---------------------------------

 Output coordinates in angstroms (scale by  1.889725989 to convert to a.u.)

  No.       Tag          Charge          X              Y              Z
 ---- ---------------- ---------- -------------- -------------- --------------
    1 C                    6.0000     0.31016632     0.98877786     0.03533479
    2 C                    6.0000    -0.72721424     0.17533461    -0.01638292
    3 C                    6.0000    -0.69768646    -1.29905358     0.01962741
    4 C                    6.0000     0.37368691    -2.06030225    -0.02943848
    5 F                    9.0000     0.27998027    -3.38257176     0.00685750
    6 H                    1.0000    -1.70888913     0.60823497    -0.08048734
    7 H                    1.0000    -1.65027562    -1.79362356     0.07935662
    8 H                    1.0000     1.39158478    -1.73260261    -0.09979072
    9 Cl                  17.0000     0.14989531     2.71472784    -0.01176857
   10 H                    1.0000     1.33050123     0.67072511     0.10984387

      Atomic Mass 
      ----------- 

      C                 12.000000
      F                 18.998400
      H                  1.007825
      Cl                34.968850


 Effective nuclear repulsion energy (a.u.)     246.0139663288

            Nuclear Dipole moment (a.u.) 
            ----------------------------
        X                 Y               Z
 ---------------- ---------------- ----------------
    -0.0289522077     0.5451881207    -0.1409376838

                                 NWChem SCF Module
                                 -----------------


                                       mol4



  ao basis        = "ao basis"
  functions       =   102
  atoms           =    10
  closed shells   =    27
  open shells     =     0
  charge          =   0.00
  wavefunction    = RHF 
  input vectors   = ./molecule.movecs
  output vectors  = ./molecule.movecs
  use symmetry    = F
  symmetry adapt  = F


 Summary of "ao basis" -> "ao basis" (cartesian)
 ------------------------------------------------------------------------------
       Tag                 Description            Shells   Functions and Types
 ---------------- ------------------------------  ------  ---------------------
 C                           6-31G*                  6       15   3s2p1d
 F                           6-31G*                  6       15   3s2p1d
 H                           6-31G*                  2        2   2s
 Cl                          6-31G*                  8       19   4s3p1d



  The SCF is already converged 

         Total SCF energy =   -712.662036567750

                              NWChem Gradients Module
                              -----------------------


                                       mol4


  wavefunction    =   RHF     



                         RHF ENERGY GRADIENTS

    atom               coordinates                        gradient
                 x          y          z           x          y          z
   1 C       0.586129   1.868519   0.066773    0.000433   0.001969   0.000044
   2 C      -1.374236   0.331334  -0.030959   -0.000328  -0.000706  -0.000704
   3 C      -1.318436  -2.454855   0.037090   -0.000702   0.000062   0.000587
   4 C       0.706166  -3.893407  -0.055631    0.000154  -0.000986   0.000025
   5 F       0.529086  -6.392134   0.012959    0.000083   0.000278  -0.000234
   6 H      -3.229332   1.149397  -0.152099    0.000167  -0.000338   0.000369
   7 H      -3.118569  -3.389457   0.149962    0.000088   0.000057  -0.000313
   8 H       2.629714  -3.274144  -0.188577   -0.000012   0.000120   0.000511
   9 Cl      0.283261   5.130092  -0.022239    0.000074  -0.000035   0.000235
  10 H       2.514283   1.267487   0.207575    0.000042  -0.000421  -0.000519

                 ----------------------------------------
                 |  Time  |  1-e(secs)   |  2-e(secs)   |
                 ----------------------------------------
                 |  CPU   |       0.02   |       6.65   |
                 ----------------------------------------
                 |  WALL  |       0.02   |       6.68   |
                 ----------------------------------------

  Step       Energy      Delta E   Gmax     Grms     Xrms     Xmax   Walltime
  ---- ---------------- -------- -------- -------- -------- -------- --------
@    1    -712.66203657 -2.5D-03  0.00136  0.00034  0.02471  0.05505     24.7
                                                                    



                                Z-matrix (autoz)
                                -------- 

 Units are Angstrom for bonds and degrees for angles

      Type          Name      I     J     K     L     M      Value     Gradient
      ----------- --------  ----- ----- ----- ----- ----- ---------- ----------
    1 Stretch                  1     2                       1.31929    0.00136
    2 Stretch                  1     9                       1.73402   -0.00005
    3 Stretch                  1    10                       1.07135    0.00013
    4 Stretch                  2     3                       1.47512    0.00047
    5 Stretch                  2     6                       1.07480   -0.00031
    6 Stretch                  3     4                       1.31520    0.00051
    7 Stretch                  3     7                       1.07499   -0.00012
    8 Stretch                  4     5                       1.32608   -0.00029
    9 Stretch                  4     8                       1.07166   -0.00001
   10 Bend                     1     2     3               126.83932    0.00047
   11 Bend                     1     2     6               118.17623   -0.00010
   12 Bend                     2     1     9               122.68138    0.00024
   13 Bend                     2     1    10               124.64970   -0.00033
   14 Bend                     2     3     4               126.43538    0.00017
   15 Bend                     2     3     7               116.32488   -0.00009
   16 Bend                     3     2     6               114.98054   -0.00037
   17 Bend                     3     4     5               121.23568    0.00011
   18 Bend                     3     4     8               126.81265   -0.00012
   19 Bend                     4     3     7               117.23485   -0.00008
   20 Bend                     5     4     8               111.95166    0.00001
   21 Bend                     9     1    10               112.66892    0.00009
   22 Torsion                  1     2     3     4          -7.55143    0.00024
   23 Torsion                  1     2     3     7         173.27975    0.00027
   24 Torsion                  2     3     4     5        -179.81355    0.00014
   25 Torsion                  2     3     4     8           0.21861    0.00023
   26 Torsion                  3     2     1     9        -179.85938    0.00021
   27 Torsion                  3     2     1    10           0.13919    0.00028
   28 Torsion                  4     3     2     6         173.18614    0.00032
   29 Torsion                  5     4     3     7          -0.65142    0.00011
   30 Torsion                  6     2     1     9          -0.61782    0.00012
   31 Torsion                  6     2     1    10         179.38074    0.00019
   32 Torsion                  6     2     3     7          -5.98268    0.00035
   33 Torsion                  7     3     4     8         179.38074    0.00020

                                 NWChem SCF Module
                                 -----------------


                                       mol4



  ao basis        = "ao basis"
  functions       =   102
  atoms           =    10
  closed shells   =    27
  open shells     =     0
  charge          =   0.00
  wavefunction    = RHF 
  input vectors   = ./molecule.movecs
  output vectors  = ./molecule.movecs
  use symmetry    = F
  symmetry adapt  = F


 Summary of "ao basis" -> "ao basis" (cartesian)
 ------------------------------------------------------------------------------
       Tag                 Description            Shells   Functions and Types
 ---------------- ------------------------------  ------  ---------------------
 C                           6-31G*                  6       15   3s2p1d
 F                           6-31G*                  6       15   3s2p1d
 H                           6-31G*                  2        2   2s
 Cl                          6-31G*                  8       19   4s3p1d



 Forming initial guess at      24.7s


 Loading old vectors from job with title :

mol4


 Starting SCF solution at      24.7s



 ----------------------------------------------
         Quadratically convergent ROHF

 Convergence threshold     :          1.000E-04
 Maximum no. of iterations :           30
 Final Fock-matrix accuracy:          1.000E-07
 ----------------------------------------------


 Integral file          = ./molecule.aoints.0
 Record size in doubles =    65536    No. of integs per rec  =    43688
 Max. records in memory =        0    Max. records in file   =  1612818
 No. of bits per label  =        8    No. of bits per value  =       64


 #quartets = 4.408D+05 #integrals = 8.840D+06 #direct =  0.0% #cached =100.0%


              iter       energy          gnorm     gmax       time
             ----- ------------------- --------- --------- --------
                 1     -712.6620348682  1.53D-02  2.26D-03     24.6
                 2     -712.6620648297  1.68D-04  3.30D-05     25.8
                 3     -712.6620648331  7.30D-06  1.87D-06     26.8


       Final RHF  results 
       ------------------ 

         Total SCF energy =   -712.662064833132
      One-electron energy =  -1470.099185101272
      Two-electron energy =    511.304223113608
 Nuclear repulsion energy =    246.132897154532

        Time for solution =      4.6s


             Final eigenvalues
             -----------------

              1      
    1 -104.8303
    2  -26.3191
    3  -11.3355
    4  -11.3014
    5  -11.2653
    6  -11.2518
    7  -10.5640
    8   -8.0334
    9   -8.0300
   10   -8.0300
   11   -1.6364
   12   -1.1676
   13   -1.0966
   14   -0.9969
   15   -0.8648
   16   -0.7910
   17   -0.7465
   18   -0.6988
   19   -0.6960
   20   -0.6343
   21   -0.6167
   22   -0.5568
   23   -0.5347
   24   -0.5196
   25   -0.4560
   26   -0.4401
   27   -0.3316
   28    0.1058
   29    0.1956
   30    0.2306
   31    0.2555
   32    0.2783
   33    0.3124
   34    0.3256
   35    0.3837
   36    0.4463
   37    0.5093

                       ROHF Final Molecular Orbital Analysis
                       -------------------------------------

 Vector   12  Occ=2.000000D+00  E=-1.167630D+00
              MO Center=  3.7D-02,  1.5D+00,  2.4D-03, r^2= 2.1D+00
   Bfn.  Coefficient  Atom+Function         Bfn.  Coefficient  Atom+Function  
  ----- ------------  ---------------      ----- ------------  ---------------
    87      0.490112   9 Cl s                83     -0.252529   9 Cl s         
     2      0.233348   1 C  s                 6      0.183753   1 C  s         
    91      0.178563   9 Cl s                17      0.169839   2 C  s         

 Vector   13  Occ=2.000000D+00  E=-1.096631D+00
              MO Center= -2.2D-01, -4.0D-01, -3.6D-03, r^2= 4.0D+00
   Bfn.  Coefficient  Atom+Function         Bfn.  Coefficient  Atom+Function  
  ----- ------------  ---------------      ----- ------------  ---------------
    87      0.339843   9 Cl s                32     -0.266521   3 C  s         
    47     -0.206814   4 C  s                36     -0.193545   3 C  s         
    83     -0.172740   9 Cl s                17     -0.164855   2 C  s         

 Vector   14  Occ=2.000000D+00  E=-9.969196D-01
              MO Center= -1.0D-01, -6.3D-02, -3.5D-03, r^2= 4.3D+00
   Bfn.  Coefficient  Atom+Function         Bfn.  Coefficient  Atom+Function  
  ----- ------------  ---------------      ----- ------------  ---------------
    87      0.326998   9 Cl s                17     -0.228011   2 C  s         
    47      0.217248   4 C  s                 2     -0.174402   1 C  s         
    91      0.165110   9 Cl s                83     -0.163233   9 Cl s         
     6     -0.158407   1 C  s                21     -0.158913   2 C  s         
    51      0.155452   4 C  s         

 Vector   15  Occ=2.000000D+00  E=-8.648222D-01
              MO Center= -9.1D-03, -1.2D+00,  6.2D-04, r^2= 4.4D+00
   Bfn.  Coefficient  Atom+Function         Bfn.  Coefficient  Atom+Function  
  ----- ------------  ---------------      ----- ------------  ---------------
    64      0.230967   5 F  py               47      0.189413   4 C  s         
    32     -0.173233   3 C  s                 2      0.169855   1 C  s         
     6      0.169805   1 C  s                87     -0.166059   9 Cl s         
    36     -0.150619   3 C  s                68      0.150356   5 F  py        

 Vector   16  Occ=2.000000D+00  E=-7.910317D-01
              MO Center=  6.9D-02, -6.2D-01,  5.1D-03, r^2= 4.9D+00
   Bfn.  Coefficient  Atom+Function         Bfn.  Coefficient  Atom+Function  
  ----- ------------  ---------------      ----- ------------  ---------------
[...]
  Setting level-shift to ****** to force positive preconditioner
                15   -30643.7409788468  1.48D+04  6.08D+03    116.5
  Setting level-shift to ****** to force positive preconditioner
                16   -50393.2114987709  1.50D+04  6.81D+03    119.0
  Setting level-shift to ****** to force positive preconditioner
                17   -24831.9811660282  4.48D+04  8.41D+03    122.1
  Setting level-shift to ****** to force positive preconditioner
                18    -9025.1590234756  3.58D+04  1.75D+04    125.0
  Setting level-shift to ****** to force positive preconditioner
                19    -1081.3575465812  3.06D+04  9.51D+03    128.0
  Setting level-shift to ****** to force positive preconditioner
                20    -7971.0478266600  3.24D+04  1.45D+04    130.8
  Setting level-shift to ****** to force positive preconditioner
                21   -25480.9834502227  4.56D+04  2.05D+04    133.8
  Setting level-shift to ****** to force positive preconditioner
                22   -67070.8312528705  2.78D+04  9.29D+03    135.4
  Setting level-shift to ****** to force positive preconditioner
                23   -83965.7798623762  1.98D+04  6.86D+03    138.3
  Setting level-shift to ****** to force positive preconditioner
                24   -97381.4946310563  1.24D+04  3.96D+03    141.2
  Setting level-shift to ****** to force positive preconditioner
                25  -104720.4354747909  3.77D+03  9.66D+02    144.1
  Setting level-shift to ****** to force positive preconditioner
                26  -108213.1212917444  1.58D+03  3.13D+02    146.2
  Setting level-shift to 999.52 to force positive preconditioner
                27  -109534.3405133351  1.00D+03  2.55D+02    146.8
  Setting level-shift to 320.38 to force positive preconditioner
                28  -109823.6324619478  2.87D+02  8.49D+01    148.3
                29  -109842.3237372356  6.17D+01  1.25D+01    148.6
                30  -109842.9294728033  5.88D+00  2.30D+00    148.7

      Calculation failed to converge
      ------------------------------



       Final RHF  results 
       ------------------ 

         Total SCF energy =-109842.929472803342
      One-electron energy =   -598.209437565006
      Two-electron energy =-109491.490482245790
 Nuclear repulsion energy =    246.770447007449

        Time for solution =     42.9s


             Final eigenvalues
             -----------------

              1      
    1 *********
    2 *********
    3 *********
    4 *********
    5 *********
    6 *********
    7 *********
    8 *********
    9 *********
   10 *********
   11 -813.5710
   12 -694.9538
   13 -574.2255
   14 -477.4248
   15 -342.1193
   16 -274.1522
   17 -201.4806
   18 -193.4647
   19 -167.8589
   20 -151.3619
   21 -144.7021
   22 -135.7470
   23 -124.2631
   24 -113.9010
   25  -96.9492
   26  -79.3768
   27  -76.3461
   28  -55.4977
   29   11.0959
   30   43.2409
   31   47.0416
   32   60.3034
   33   69.6456
   34   80.9696
   35   89.4716
   36   96.1228
   37  105.6179

                       ROHF Final Molecular Orbital Analysis
                       -------------------------------------

 Vector   18  Occ=2.000000D+00  E=-1.934647D+02
              MO Center=  2.7D-01, -3.1D+00,  5.9D-02, r^2= 2.1D+00
   Bfn.  Coefficient  Atom+Function         Bfn.  Coefficient  Atom+Function  
  ----- ------------  ---------------      ----- ------------  ---------------
    69      0.948359   5 F  pz               67      0.405941   5 F  px        
    59      0.354743   4 C  dyz              38     -0.293801   3 C  py        
    57     -0.189048   4 C  dxz              54     -0.151126   4 C  pz        

 Vector   19  Occ=2.000000D+00  E=-1.678589D+02
              MO Center=  4.9D-01, -1.1D+00, -1.1D-01, r^2= 4.8D+00
   Bfn.  Coefficient  Atom+Function         Bfn.  Coefficient  Atom+Function  
  ----- ------------  ---------------      ----- ------------  ---------------
    51      0.784426   4 C  s                81     -0.774744   8 H  s         
    36     -0.562811   3 C  s                80      0.558944   8 H  s         
   102     -0.556382  10 H  s                22      0.535110   2 C  px        
    87     -0.441407   9 Cl s                79      0.428539   7 H  s         
    52     -0.419271   4 C  px              101      0.357627  10 H  s         

 Vector   20  Occ=2.000000D+00  E=-1.513619D+02
              MO Center=  3.3D-01, -2.4D+00, -8.2D-02, r^2= 3.4D+00
   Bfn.  Coefficient  Atom+Function         Bfn.  Coefficient  Atom+Function  
  ----- ------------  ---------------      ----- ------------  ---------------
    54      0.738166   4 C  pz               68      0.412472   5 F  py        
    67      0.376003   5 F  px               52      0.256307   4 C  px        
    69     -0.237600   5 F  pz               74     -0.210717   5 F  dyz       
    24     -0.201500   2 C  pz               38      0.176778   3 C  py        
    44      0.169948   3 C  dyz              93      0.162764   9 Cl py        

 Vector   21  Occ=2.000000D+00  E=-1.447021D+02
              MO Center=  9.1D-02, -2.0D+00,  6.4D-03, r^2= 4.2D+00
   Bfn.  Coefficient  Atom+Function         Bfn.  Coefficient  Atom+Function  
  ----- ------------  ---------------      ----- ------------  ---------------
    67      0.486268   5 F  px               22      0.425201   2 C  px        
    54     -0.381071   4 C  pz                9      0.365758   1 C  pz        
    37     -0.309865   3 C  px               53     -0.304808   4 C  py        
    39     -0.224551   3 C  pz               81      0.183000   8 H  s         
    62      0.177177   5 F  s                74      0.174304   5 F  dyz       

 Vector   22  Occ=2.000000D+00  E=-1.357470D+02
              MO Center= -4.5D-01, -1.0D+00,  5.4D-02, r^2= 4.8D+00
   Bfn.  Coefficient  Atom+Function         Bfn.  Coefficient  Atom+Function  
  ----- ------------  ---------------      ----- ------------  ---------------
    39      1.031741   3 C  pz               54     -0.756085   4 C  pz        
    93     -0.270322   9 Cl py               23     -0.266887   2 C  py        
    53     -0.233579   4 C  py               37      0.226887   3 C  px        
    68      0.223169   5 F  py               69      0.213288   5 F  pz        
    29      0.202901   2 C  dyz              92     -0.176104   9 Cl px        

 Vector   23  Occ=2.000000D+00  E=-1.242631D+02
              MO Center= -5.3D-01,  3.7D-01,  8.0D-02, r^2= 4.4D+00
   Bfn.  Coefficient  Atom+Function         Bfn.  Coefficient  Atom+Function  
  ----- ------------  ---------------      ----- ------------  ---------------
    24      1.302864   2 C  pz                9     -0.717158   1 C  pz        
    39     -0.712109   3 C  pz               93      0.305922   9 Cl py        
    14      0.295842   1 C  dyz              38      0.211485   3 C  py        
    52      0.201591   4 C  px              101      0.194057  10 H  s         
     8      0.175248   1 C  py               94     -0.175339   9 Cl pz        

 Vector   24  Occ=2.000000D+00  E=-1.139010D+02
              MO Center=  7.7D-02,  1.7D-01,  3.0D-01, r^2= 5.4D+00
   Bfn.  Coefficient  Atom+Function         Bfn.  Coefficient  Atom+Function  
  ----- ------------  ---------------      ----- ------------  ---------------
    39      0.584522   3 C  pz               54     -0.562401   4 C  pz        
     9     -0.514769   1 C  pz               93      0.420110   9 Cl py        
   102     -0.365356  10 H  s                24     -0.350373   2 C  pz        
   101      0.301490  10 H  s                37     -0.250500   3 C  px        
    52      0.216156   4 C  px               23      0.214160   2 C  py        

 Vector   25  Occ=2.000000D+00  E=-9.694916D+01
              MO Center=  2.3D-01,  8.3D-01, -3.1D-02, r^2= 5.2D+00
   Bfn.  Coefficient  Atom+Function         Bfn.  Coefficient  Atom+Function  
  ----- ------------  ---------------      ----- ------------  ---------------
     9      0.730554   1 C  pz               93      0.480789   9 Cl py        
    39      0.320769   3 C  pz               52      0.299778   4 C  px        
    23      0.291795   2 C  py               37     -0.235529   3 C  px        
    92      0.221742   9 Cl px               24     -0.219659   2 C  pz        
    53      0.193170   4 C  py               80     -0.190417   8 H  s         

 Vector   26  Occ=2.000000D+00  E=-7.937678D+01
              MO Center= -1.9D-01,  1.3D+00, -1.6D-01, r^2= 5.0D+00
   Bfn.  Coefficient  Atom+Function         Bfn.  Coefficient  Atom+Function  
  ----- ------------  ---------------      ----- ------------  ---------------
    92      0.636516   9 Cl px               23      0.503453   2 C  py        
    22      0.421815   2 C  px              102      0.268200  10 H  s         
    38     -0.263811   3 C  py               93      0.253102   9 Cl py        
   101     -0.211099  10 H  s                94     -0.208768   9 Cl pz        
     8     -0.187934   1 C  py               77     -0.175532   6 H  s         

 Vector   27  Occ=2.000000D+00  E=-7.634610D+01
              MO Center=  1.2D-01,  2.3D+00, -1.8D-01, r^2= 3.8D+00
   Bfn.  Coefficient  Atom+Function         Bfn.  Coefficient  Atom+Function  
  ----- ------------  ---------------      ----- ------------  ---------------
    94      0.989490   9 Cl pz                9     -0.568473   1 C  pz        
    24      0.408902   2 C  pz               39     -0.282296   3 C  pz        
    93      0.230796   9 Cl py        

 Vector   28  Occ=0.000000D+00  E=-5.549770D+01
              MO Center=  1.4D-01,  1.8D+00, -9.3D-03, r^2= 3.9D+00
   Bfn.  Coefficient  Atom+Function         Bfn.  Coefficient  Atom+Function  
  ----- ------------  ---------------      ----- ------------  ---------------
    93      0.530926   9 Cl py               92     -0.459574   9 Cl px        
     8     -0.412174   1 C  py               37      0.283854   3 C  px        
     7      0.276609   1 C  px               94     -0.226443   9 Cl pz        
    52     -0.177769   4 C  px                9      0.174043   1 C  pz        
    87     -0.173190   9 Cl s         

 Vector   29  Occ=0.000000D+00  E= 1.109590D+01
              MO Center=  2.4D-01,  2.7D+00, -1.2D-01, r^2= 7.6D-03
   Bfn.  Coefficient  Atom+Function         Bfn.  Coefficient  Atom+Function  
  ----- ------------  ---------------      ----- ------------  ---------------
    82      1.002749   9 Cl s         

 Vector   30  Occ=0.000000D+00  E= 4.324090D+01
              MO Center= -1.5D-01, -1.3D+00, -2.7D-02, r^2= 1.8D+00
   Bfn.  Coefficient  Atom+Function         Bfn.  Coefficient  Atom+Function  
  ----- ------------  ---------------      ----- ------------  ---------------
    58     -0.420255   4 C  dyy              41      0.402436   3 C  dxy       
    43      0.349245   3 C  dyy              34     -0.289704   3 C  py        
    28      0.277274   2 C  dyy              49     -0.244420   4 C  py        
    13     -0.216228   1 C  dyy              40     -0.196134   3 C  dxx       
    71     -0.192276   5 F  dxy              70      0.176811   5 F  dxx       

 Vector   31  Occ=0.000000D+00  E= 4.704158D+01
              MO Center= -1.9D-01,  1.6D-01,  3.3D-02, r^2= 1.7D+00
   Bfn.  Coefficient  Atom+Function         Bfn.  Coefficient  Atom+Function  
  ----- ------------  ---------------      ----- ------------  ---------------
    13      0.458077   1 C  dyy              41      0.403118   3 C  dxy       
    19     -0.359322   2 C  py               28     -0.344038   2 C  dyy       
    26     -0.328862   2 C  dxy               4     -0.315052   1 C  py        
    10     -0.251685   1 C  dxx              25      0.222849   2 C  dxx       
    34     -0.178456   3 C  py               71     -0.162970   5 F  dxy       

 Vector   32  Occ=0.000000D+00  E= 6.030343D+01
              MO Center=  1.6D-01,  6.2D-01,  2.2D-01, r^2= 2.7D+00
   Bfn.  Coefficient  Atom+Function         Bfn.  Coefficient  Atom+Function  
  ----- ------------  ---------------      ----- ------------  ---------------
    11      0.672085   1 C  dxy              26      0.452251   2 C  dxy       
   101      0.406738  10 H  s                96     -0.362176   9 Cl dxy       
     3      0.338595   1 C  px               87     -0.290953   9 Cl s         
    41     -0.253028   3 C  dxy              56     -0.247313   4 C  dxy       
   100      0.183090   9 Cl dzz              43      0.159524   3 C  dyy       

 Vector   33  Occ=0.000000D+00  E= 6.964556D+01
              MO Center=  2.6D-01, -1.4D+00,  5.0D-02, r^2= 4.1D+00
   Bfn.  Coefficient  Atom+Function         Bfn.  Coefficient  Atom+Function  
  ----- ------------  ---------------      ----- ------------  ---------------
    56      0.672357   4 C  dxy              71     -0.656751   5 F  dxy       
    87     -0.343306   9 Cl s                 3      0.246501   1 C  px        
    49      0.242686   4 C  py               96     -0.223286   9 Cl dxy       
    43     -0.217878   3 C  dyy             101      0.198008  10 H  s         
    41      0.188754   3 C  dxy              13     -0.185746   1 C  dyy       

 Vector   34  Occ=0.000000D+00  E= 8.096960D+01
              MO Center= -1.0D-03, -7.1D-01,  5.9D-02, r^2= 3.9D+00
   Bfn.  Coefficient  Atom+Function         Bfn.  Coefficient  Atom+Function  
  ----- ------------  ---------------      ----- ------------  ---------------
    26      0.650119   2 C  dxy              71     -0.551326   5 F  dxy       
    41     -0.347737   3 C  dxy               3     -0.288474   1 C  px        
   101     -0.232440  10 H  s                48     -0.230603   4 C  px        
    56      0.225730   4 C  dxy              28     -0.207104   2 C  dyy       
    11      0.190394   1 C  dxy              33     -0.181156   3 C  px        

 Vector   35  Occ=0.000000D+00  E= 8.947156D+01
              MO Center=  2.3D-01, -4.0D-01, -8.0D-02, r^2= 4.3D+00
   Bfn.  Coefficient  Atom+Function         Bfn.  Coefficient  Atom+Function  
  ----- ------------  ---------------      ----- ------------  ---------------
    11      0.389716   1 C  dxy              48      0.357488   4 C  px        
    80      0.332600   8 H  s                96     -0.331973   9 Cl dxy       
    41      0.235942   3 C  dxy              71      0.225815   5 F  dxy       
    95     -0.226428   9 Cl dxx              14      0.224376   1 C  dyz       
    10      0.201469   1 C  dxx              26      0.201620   2 C  dxy       

 Vector   36  Occ=0.000000D+00  E= 9.612280D+01
              MO Center=  7.3D-02,  3.3D-01, -9.7D-02, r^2= 4.8D+00
   Bfn.  Coefficient  Atom+Function         Bfn.  Coefficient  Atom+Function  
  ----- ------------  ---------------      ----- ------------  ---------------
    96      0.492602   9 Cl dxy              95      0.390253   9 Cl dxx       
    80      0.299888   8 H  s                26      0.264401   2 C  dxy       
    48      0.263915   4 C  px               11     -0.261408   1 C  dxy       
     4     -0.227399   1 C  py               99      0.227088   9 Cl dyz       
   101      0.203030  10 H  s                15      0.195171   1 C  dzz       

 Vector   37  Occ=0.000000D+00  E= 1.056179D+02
              MO Center= -1.2D-01,  3.7D-01, -3.9D-02, r^2= 3.7D+00
   Bfn.  Coefficient  Atom+Function         Bfn.  Coefficient  Atom+Function  
  ----- ------------  ---------------      ----- ------------  ---------------
    98     -0.417040   9 Cl dyy              14      0.412615   1 C  dyz       
    12      0.315295   1 C  dxz              29      0.312310   2 C  dyz       
    97      0.310287   9 Cl dxz              33      0.295619   3 C  px        
    87      0.255240   9 Cl s                11      0.253518   1 C  dxy       
    78     -0.254571   7 H  s                25      0.243681   2 C  dxx       


------------------------------------------------------------
EAF file 0: "./molecule.aoints.0" size=135790592 bytes
------------------------------------------------------------
               write      read    awrite     aread      wait
               -----      ----    ------     -----      ----
     calls:      246       273         0     66885     66885
   data(b): 1.29e+08  1.43e+08  0.00e+00  3.51e+10
   time(s): 0.00e+00  0.00e+00  0.00e+00  0.00e+00  0.00e+00
rate(mb/s): 0.00e+00  0.00e+00
------------------------------------------------------------


 center of mass
 --------------
 x =   0.08969906 y =   0.02463260 z =  -0.04774472

 moments of inertia (a.u.)
 ------------------
        1981.985559629871         -14.964010397720           2.672010085098
         -14.964010397720         106.178412793644          36.711797456874
           2.672010085098          36.711797456874        2064.181925326458

  Mulliken analysis of the total density
  --------------------------------------

    Atom       Charge   Shell Charges
 -----------   ------   -------------------------------------------------------
    1 C    6     7.54   0.00  0.64 -0.07  1.99  4.98  0.00
    2 C    6     8.20   0.00  0.36 -0.03  2.15  5.80 -0.09
    3 C    6     8.16   0.01  0.31 -0.05  1.80  6.08  0.02
    4 C    6     7.58   0.01  0.27 -0.18  1.93  5.77 -0.22
    5 F    9     8.58   0.00  0.50  0.10  2.05  6.07 -0.15
    6 H    1     1.62   0.10  1.51
    7 H    1     1.86   0.06  1.80
    8 H    1     1.80   0.05  1.75
    9 Cl  17     6.83  -0.00  0.02  0.00  0.23  0.02  1.92  4.32  0.32
   10 H    1     1.84   0.06  1.78

       Multipole analysis of the density wrt the origin
       ------------------------------------------------

     L   x y z        total         open         nuclear
     -   - - -        -----         ----         -------
     0   0 0 0     -0.000000      0.000000     54.000000

     1   1 0 0      8.897514      0.000000      3.483277
     1   0 1 0     53.928325      0.000000     -0.090765
     1   0 0 1     -1.363663      0.000000     -2.438019

     2   2 0 0   -237.839273      0.000000     61.254289
     2   1 1 0     11.486613      0.000000      9.407944
     2   1 0 1     -0.054511      0.000000     -1.539066
     2   0 2 0     51.116322      0.000000    964.654191
     2   0 1 1    -14.174971      0.000000    -16.953822
     2   0 0 2   -165.886525      0.000000      8.812124


 Parallel integral file used     246 records with       0 large values

 ------------------------------------------------------------------------
 driver_energy_step: energy failed                   0
 ------------------------------------------------------------------------
 ------------------------------------------------------------------------
  current input line : 
    25: task scf optimize
 ------------------------------------------------------------------------
 ------------------------------------------------------------------------
 There is an error related to the specified geometry
 ------------------------------------------------------------------------
 For more information see the NWChem manual at http://www.nwchem-sw.org/index.php/NWChem_Documentation


 For further details see manual section:                                                                                                                                                                                                                                                                
--------------------------------------------------------------------------
MPI_ABORT was invoked on rank 0 in communicator MPI COMMUNICATOR 4 DUP FROM 0 
with errorcode -1.

NOTE: invoking MPI_ABORT causes Open MPI to kill all MPI processes.
You may or may not see output from other processes, depending on
exactly when Open MPI kills them.
--------------------------------------------------------------------------
0:0:driver_energy_step: energy failed:: -1
(rank:0 hostname:evandell pid:26093):ARMCI DASSERT fail. ../../ga-5-4/armci/src/common/armci.c:ARMCI_Error():208 cond:0
