 argument  1 = mol1.nw



============================== echo of input deck ==============================
echo

start molecule

title "mol2"
charge 0

geometry units angstroms print xyz autosym
   C       -0.54743        2.88692       -0.12815
   C        0.40531        1.95800       -0.00993
   C        1.80715        2.24835       -0.19337
   C        2.76382        1.32675       -0.07707
   F        4.05961        1.64201       -0.25674
   H        0.12856        0.93434        0.23468
   H        2.09891        3.26669       -0.43812
   H        2.64650        0.27891        0.15901
  Cl       -2.21086        2.53571        0.09096
   H       -0.37646        3.92881       -0.36757
end

basis
  * library 6-31G*
end

task scf optimize
================================================================================


                                         
                                         


              Northwest Computational Chemistry Package (NWChem) 6.6
              ------------------------------------------------------


                    Environmental Molecular Sciences Laboratory
                       Pacific Northwest National Laboratory
                                Richland, WA 99352

                              Copyright (c) 1994-2015
                       Pacific Northwest National Laboratory
                            Battelle Memorial Institute

             NWChem is an open-source computational chemistry package
                        distributed under the terms of the
                      Educational Community License (ECL) 2.0
             A copy of the license is included with this distribution
                              in the LICENSE.TXT file

                                  ACKNOWLEDGMENT
                                  --------------

            This software and its documentation were developed at the
            EMSL at Pacific Northwest National Laboratory, a multiprogram
            national laboratory, operated for the U.S. Department of Energy
            by Battelle under Contract Number DE-AC05-76RL01830. Support
            for this work was provided by the Department of Energy Office
            of Biological and Environmental Research, Office of Basic
            Energy Sciences, and the Office of Advanced Scientific Computing.


           Job information
           ---------------

    hostname        = evandell
    program         = nwchem
    date            = Thu Dec  1 15:01:21 2016

    compiled        = Mon_Feb_15_08:24:17_2016
    source          = /build/nwchem-MF0R1k/nwchem-6.6+r27746
    nwchem branch   = 6.6
    nwchem revision = 27746
    ga revision     = 10594
    input           = mol1.nw
    prefix          = molecule.
    data base       = ./molecule.db
    status          = startup
    nproc           =        1
    time left       =     -1s



           Memory information
           ------------------

    heap     =   13107198 doubles =    100.0 Mbytes
    stack    =   13107195 doubles =    100.0 Mbytes
    global   =   26214400 doubles =    200.0 Mbytes (distinct from heap & stack)
    total    =   52428793 doubles =    400.0 Mbytes
    verify   = yes
    hardfail = no 


           Directory information
           ---------------------

  0 permanent = .
  0 scratch   = .




                                NWChem Input Module
                                -------------------


                                       mol2
                                       ----

 Scaling coordinates for geometry "geometry" by  1.889725989
 (inverse scale =  0.529177249)

 CS  symmetry detected

          ------
          auto-z
          ------


                             Geometry "geometry" -> ""
                             -------------------------

 Output coordinates in angstroms (scale by  1.889725989 to convert to a.u.)

  No.       Tag          Charge          X              Y              Z
 ---- ---------------- ---------- -------------- -------------- --------------
    1 C                    6.0000     0.53245277     1.20890252     0.00000000
    2 C                    6.0000    -0.23426203     0.11495084     0.00000000
    3 C                    6.0000     0.31070105    -1.22150865     0.00000000
    4 C                    6.0000    -0.44791675    -2.31813473     0.00000000
    5 F                    9.0000     0.10314539    -3.54576351     0.00000000
    6 H                    1.0000    -1.31748531     0.21950580     0.00000000
    7 H                    1.0000     1.39124804    -1.34176264     0.00000000
    8 H                    1.0000    -1.52691277    -2.37500310     0.00000000
    9 Cl                  17.0000    -0.12094632     2.79365065     0.00000000
   10 H                    1.0000     1.61507874     1.21181067     0.00000000

      Atomic Mass 
      ----------- 

      C                 12.000000
      F                 18.998400
      H                  1.007825
      Cl                34.968850


 Effective nuclear repulsion energy (a.u.)     243.0058978831

            Nuclear Dipole moment (a.u.) 
            ----------------------------
        X                 Y               Z
 ---------------- ---------------- ----------------
    -0.0000000000    -0.0000000000     0.0000000000

      Symmetry information
      --------------------

 Group name             Cs        
 Group number              2
 Group order               2
 No. of unique centers    10

      Symmetry unique atoms

     1    2    3    4    5    6    7    8    9   10



                                Z-matrix (autoz)
                                -------- 

 Units are Angstrom for bonds and degrees for angles

      Type          Name      I     J     K     L     M      Value
      ----------- --------  ----- ----- ----- ----- ----- ----------
    1 Stretch                  1     2                       1.33588
    2 Stretch                  1     9                       1.71416
    3 Stretch                  1    10                       1.08263
    4 Stretch                  2     3                       1.44330
    5 Stretch                  2     6                       1.08826
    6 Stretch                  3     4                       1.33345
    7 Stretch                  3     7                       1.08722
    8 Stretch                  4     5                       1.34564
    9 Stretch                  4     8                       1.08049
   10 Bend                     1     2     3               122.79067
   11 Bend                     1     2     6               119.51212
   12 Bend                     2     1     9               122.56806
   13 Bend                     2     1    10               125.17926
   14 Bend                     2     3     4               123.14153
   15 Bend                     2     3     7               118.53429
   16 Bend                     3     2     6               117.69721
   17 Bend                     3     4     5               121.15099
   18 Bend                     3     4     8               127.69147
   19 Bend                     4     3     7               118.32418
   20 Bend                     5     4     8               111.15754
   21 Bend                     9     1    10               112.25268
   22 Torsion                  1     2     3     4         180.00000
   23 Torsion                  1     2     3     7           0.00000
   24 Torsion                  2     3     4     5         180.00000
   25 Torsion                  2     3     4     8           0.00000
   26 Torsion                  3     2     1     9         180.00000
   27 Torsion                  3     2     1    10           0.00000
   28 Torsion                  4     3     2     6           0.00000
   29 Torsion                  5     4     3     7           0.00000
   30 Torsion                  6     2     1     9           0.00000
   31 Torsion                  6     2     1    10         180.00000
   32 Torsion                  6     2     3     7         180.00000
   33 Torsion                  7     3     4     8         180.00000


            XYZ format geometry
            -------------------
    10
 geometry
 C                     0.53245277     1.20890252     0.00000000
 C                    -0.23426203     0.11495084     0.00000000
 C                     0.31070105    -1.22150865     0.00000000
 C                    -0.44791675    -2.31813473     0.00000000
 F                     0.10314539    -3.54576351     0.00000000
 H                    -1.31748531     0.21950580     0.00000000
 H                     1.39124804    -1.34176264     0.00000000
 H                    -1.52691277    -2.37500310     0.00000000
 Cl                   -0.12094632     2.79365065     0.00000000
 H                     1.61507874     1.21181067     0.00000000

 ==============================================================================
                                internuclear distances
 ------------------------------------------------------------------------------
       center one      |      center two      | atomic units |  angstroms
 ------------------------------------------------------------------------------
    2 C                |   1 C                |     2.52445  |     1.33588
    3 C                |   2 C                |     2.72744  |     1.44330
    4 C                |   3 C                |     2.51986  |     1.33345
    5 F                |   4 C                |     2.54289  |     1.34564
    6 H                |   2 C                |     2.05651  |     1.08826
    7 H                |   3 C                |     2.05454  |     1.08722
    8 H                |   4 C                |     2.04184  |     1.08049
    9 Cl               |   1 C                |     3.23930  |     1.71416
   10 H                |   1 C                |     2.04587  |     1.08263
 ------------------------------------------------------------------------------
                         number of included internuclear distances:          9
 ==============================================================================



 ==============================================================================
                                 internuclear angles
 ------------------------------------------------------------------------------
        center 1       |       center 2       |       center 3       |  degrees
 ------------------------------------------------------------------------------
    2 C                |   1 C                |   9 Cl               |   122.57
    2 C                |   1 C                |  10 H                |   125.18
    9 Cl               |   1 C                |  10 H                |   112.25
    1 C                |   2 C                |   3 C                |   122.79
    1 C                |   2 C                |   6 H                |   119.51
    3 C                |   2 C                |   6 H                |   117.70
    2 C                |   3 C                |   4 C                |   123.14
    2 C                |   3 C                |   7 H                |   118.53
    4 C                |   3 C                |   7 H                |   118.32
    3 C                |   4 C                |   5 F                |   121.15
    3 C                |   4 C                |   8 H                |   127.69
    5 F                |   4 C                |   8 H                |   111.16
 ------------------------------------------------------------------------------
                            number of included internuclear angles:         12
 ==============================================================================





 Summary of "ao basis" -> "" (cartesian)
 ------------------------------------------------------------------------------
       Tag                 Description            Shells   Functions and Types
 ---------------- ------------------------------  ------  ---------------------
 *                           6-31G*                   on all atoms 




                           NWChem Geometry Optimization
                           ----------------------------




                                       mol2


 maximum gradient threshold         (gmax) =   0.000450
 rms gradient threshold             (grms) =   0.000300
 maximum cartesian step threshold   (xmax) =   0.001800
 rms cartesian step threshold       (xrms) =   0.001200
 fixed trust radius                (trust) =   0.300000
 maximum step size to saddle      (sadstp) =   0.100000
 energy precision                  (eprec) =   1.0D-07
 maximum number of steps          (nptopt) =   20
 initial hessian option           (inhess) =    0
 line search option               (linopt) =    1
 hessian update option            (modupd) =    1
 saddle point option              (modsad) =    0
 initial eigen-mode to follow     (moddir) =    0
 initial variable to follow       (vardir) =    0
 follow first negative mode     (firstneg) =    T
 apply conjugacy                    (opcg) =    F
 source of zmatrix                         =   autoz   


          -------------------
          Energy Minimization
          -------------------


 Names of Z-matrix variables 
    1              2              3              4              5         
    6              7              8              9             10         
   11             12             13             14             15         
   16             17             18             19             20         
   21             22             23             24             25         
   26             27             28             29             30         
   31             32             33         

 Variables with the same non-blank name are constrained to be equal


 Using diagonal initial Hessian 
 Scaling for Hessian diagonals: bonds = 1.00  angles = 0.25  torsions = 0.10

          --------
          Step   0
          --------


                         Geometry "geometry" -> "geometry"
                         ---------------------------------

 Output coordinates in angstroms (scale by  1.889725989 to convert to a.u.)

  No.       Tag          Charge          X              Y              Z
 ---- ---------------- ---------- -------------- -------------- --------------
    1 C                    6.0000     0.53245277     1.20890252     0.00000000
    2 C                    6.0000    -0.23426203     0.11495084     0.00000000
    3 C                    6.0000     0.31070105    -1.22150865     0.00000000
    4 C                    6.0000    -0.44791675    -2.31813473     0.00000000
    5 F                    9.0000     0.10314539    -3.54576351     0.00000000
    6 H                    1.0000    -1.31748531     0.21950580     0.00000000
    7 H                    1.0000     1.39124804    -1.34176264     0.00000000
    8 H                    1.0000    -1.52691277    -2.37500310     0.00000000
    9 Cl                  17.0000    -0.12094632     2.79365065     0.00000000
   10 H                    1.0000     1.61507874     1.21181067     0.00000000

      Atomic Mass 
      ----------- 

      C                 12.000000
      F                 18.998400
      H                  1.007825
      Cl                34.968850


 Effective nuclear repulsion energy (a.u.)     243.0058978831

            Nuclear Dipole moment (a.u.) 
            ----------------------------
        X                 Y               Z
 ---------------- ---------------- ----------------
    -0.0000000000    -0.0000000000     0.0000000000

      Symmetry information
      --------------------

 Group name             Cs        
 Group number              2
 Group order               2
 No. of unique centers    10

      Symmetry unique atoms

     1    2    3    4    5    6    7    8    9   10

                      Basis "ao basis" -> "ao basis" (cartesian)
                      -----
  C (Carbon)
  ----------
            Exponent  Coefficients 
       -------------- ---------------------------------------------------------
  1 S  3.04752490E+03  0.001835
  1 S  4.57369510E+02  0.014037
  1 S  1.03948690E+02  0.068843
  1 S  2.92101550E+01  0.232184
  1 S  9.28666300E+00  0.467941
  1 S  3.16392700E+00  0.362312

  2 S  7.86827240E+00 -0.119332
  2 S  1.88128850E+00 -0.160854
  2 S  5.44249300E-01  1.143456

  3 P  7.86827240E+00  0.068999
  3 P  1.88128850E+00  0.316424
  3 P  5.44249300E-01  0.744308

  4 S  1.68714400E-01  1.000000

  5 P  1.68714400E-01  1.000000

  6 D  8.00000000E-01  1.000000

  F (Fluorine)
  ------------
            Exponent  Coefficients 
       -------------- ---------------------------------------------------------
  1 S  7.00171309E+03  0.001820
  1 S  1.05136609E+03  0.013916
  1 S  2.39285690E+02  0.068405
  1 S  6.73974453E+01  0.233186
  1 S  2.15199573E+01  0.471267
  1 S  7.40310130E+00  0.356619

  2 S  2.08479528E+01 -0.108507
  2 S  4.80830834E+00 -0.146452
  2 S  1.34406986E+00  1.128689

  3 P  2.08479528E+01  0.071629
  3 P  4.80830834E+00  0.345912
  3 P  1.34406986E+00  0.722470

  4 S  3.58151393E-01  1.000000

  5 P  3.58151393E-01  1.000000

  6 D  8.00000000E-01  1.000000

  H (Hydrogen)
  ------------
            Exponent  Coefficients 
       -------------- ---------------------------------------------------------
  1 S  1.87311370E+01  0.033495
  1 S  2.82539370E+00  0.234727
  1 S  6.40121700E-01  0.813757

  2 S  1.61277800E-01  1.000000

  Cl (Chlorine)
  -------------
            Exponent  Coefficients 
       -------------- ---------------------------------------------------------
  1 S  2.51801000E+04  0.001833
  1 S  3.78035000E+03  0.014034
  1 S  8.60474000E+02  0.069097
  1 S  2.42145000E+02  0.237452
  1 S  7.73349000E+01  0.483034
  1 S  2.62470000E+01  0.339856

  2 S  4.91765000E+02 -0.002297
  2 S  1.16984000E+02 -0.030714
  2 S  3.74153000E+01 -0.112528
  2 S  1.37834000E+01  0.045016
  2 S  5.45215000E+00  0.589353
  2 S  2.22588000E+00  0.465206

  3 P  4.91765000E+02  0.003989
  3 P  1.16984000E+02  0.030318
  3 P  3.74153000E+01  0.129880
  3 P  1.37834000E+01  0.327951
  3 P  5.45215000E+00  0.453527
  3 P  2.22588000E+00  0.252154

  4 S  3.18649000E+00 -0.251830
  4 S  1.14427000E+00  0.061589
  4 S  4.20377000E-01  1.060180

  5 P  3.18649000E+00 -0.014299
  5 P  1.14427000E+00  0.323572
  5 P  4.20377000E-01  0.743507

  6 S  1.42657000E-01  1.000000

  7 P  1.42657000E-01  1.000000

  8 D  7.50000000E-01  1.000000



 Summary of "ao basis" -> "ao basis" (cartesian)
 ------------------------------------------------------------------------------
       Tag                 Description            Shells   Functions and Types
 ---------------- ------------------------------  ------  ---------------------
 C                           6-31G*                  6       15   3s2p1d
 F                           6-31G*                  6       15   3s2p1d
 H                           6-31G*                  2        2   2s
 Cl                          6-31G*                  8       19   4s3p1d


                                 NWChem SCF Module
                                 -----------------


                                       mol2



  ao basis        = "ao basis"
  functions       =   102
  atoms           =    10
  closed shells   =    27
  open shells     =     0
  charge          =   0.00
  wavefunction    = RHF 
  input vectors   = atomic
  output vectors  = ./molecule.movecs
  use symmetry    = T
  symmetry adapt  = T


 Summary of "ao basis" -> "ao basis" (cartesian)
 ------------------------------------------------------------------------------
       Tag                 Description            Shells   Functions and Types
 ---------------- ------------------------------  ------  ---------------------
 C                           6-31G*                  6       15   3s2p1d
 F                           6-31G*                  6       15   3s2p1d
 H                           6-31G*                  2        2   2s
 Cl                          6-31G*                  8       19   4s3p1d


      Symmetry analysis of basis
      --------------------------

        a'         77
        a"         25


 Forming initial guess at       0.0s


      Superposition of Atomic Density Guess
      -------------------------------------

 Sum of atomic energies:        -711.45686149

      Non-variational initial energy
      ------------------------------

 Total energy =    -714.358101
 1-e energy   =   -1461.450790
 2-e energy   =     504.086790
 HOMO         =      -0.214910
 LUMO         =       0.011661


      Symmetry analysis of molecular orbitals - initial
      -------------------------------------------------

  Numbering of irreducible representations: 

     1 a'          2 a"      

  Orbital symmetries:

     1 a'          2 a'          3 a'          4 a'          5 a'      
     6 a'          7 a'          8 a'          9 a'         10 a"      
    11 a'         12 a'         13 a'         14 a'         15 a'      
    16 a'         17 a'         18 a'         19 a"         20 a'      
    21 a'         22 a"         23 a'         24 a'         25 a'      
    26 a"         27 a"         28 a"         29 a'         30 a"      
    31 a'         32 a'         33 a'         34 a'         35 a'      
    36 a'         37 a'      


 Starting SCF solution at       0.6s



 ----------------------------------------------
         Quadratically convergent ROHF

 Convergence threshold     :          1.000E-04
 Maximum no. of iterations :           30
 Final Fock-matrix accuracy:          1.000E-07
 ----------------------------------------------


 Integral file          = ./molecule.aoints.0
 Record size in doubles =    65536    No. of integs per rec  =    43688
 Max. records in memory =      281    Max. records in file   =  1613238
 No. of bits per label  =        8    No. of bits per value  =       64


 #quartets = 4.264D+05 #integrals = 4.749D+06 #direct =  0.0% #cached =100.0%


              iter       energy          gnorm     gmax       time
             ----- ------------------- --------- --------- --------
                 1     -712.5854739141  1.01D+00  1.97D-01      2.1
                 2     -712.6532639060  4.65D-01  1.12D-01      2.2
                 3     -712.6637527101  1.96D-01  4.42D-02      2.2
                 4     -712.6663584532  1.29D-02  3.02D-03      2.4
                 5     -712.6663705545  1.25D-04  2.55D-05      2.7
                 6     -712.6663705565  4.99D-06  1.03D-06      2.9


       Final RHF  results 
       ------------------ 

         Total SCF energy =   -712.666370556524
      One-electron energy =  -1463.912990366311
      Two-electron energy =    508.240721926670
 Nuclear repulsion energy =    243.005897883116

        Time for solution =      2.2s



       Symmetry analysis of molecular orbitals - final
       -----------------------------------------------

  Numbering of irreducible representations: 

     1 a'          2 a"      

  Orbital symmetries:

     1 a'          2 a'          3 a'          4 a'          5 a'      
     6 a'          7 a'          8 a'          9 a'         10 a"      
    11 a'         12 a'         13 a'         14 a'         15 a'      
    16 a'         17 a'         18 a'         19 a"         20 a'      
    21 a'         22 a'         23 a'         24 a"         25 a'      
    26 a"         27 a"         28 a"         29 a'         30 a'      
    31 a"         32 a'         33 a'         34 a'         35 a'      
    36 a'         37 a'      

             Final eigenvalues
             -----------------

              1      
    1 -104.8304
    2  -26.3145
    3  -11.3393
    4  -11.3037
    5  -11.2678
    6  -11.2569
    7  -10.5645
    8   -8.0339
    9   -8.0305
   10   -8.0305
   11   -1.6244
   12   -1.1713
   13   -1.0994
   14   -0.9952
   15   -0.8454
   16   -0.7973
   17   -0.7292
   18   -0.7046
   19   -0.6877
   20   -0.6363
   21   -0.6108
   22   -0.5606
   23   -0.5372
   24   -0.5221
   25   -0.4556
   26   -0.4429
   27   -0.3237
   28    0.1103
   29    0.2122
   30    0.2341
   31    0.2352
   32    0.2766
   33    0.2865
   34    0.3108
   35    0.3673
   36    0.4563
   37    0.4961

                       ROHF Final Molecular Orbital Analysis
                       -------------------------------------

 Vector   12  Occ=2.000000D+00  E=-1.171291D+00  Symmetry=a'
              MO Center=  8.5D-02,  1.7D+00,  2.4D-17, r^2= 2.0D+00
   Bfn.  Coefficient  Atom+Function         Bfn.  Coefficient  Atom+Function  
  ----- ------------  ---------------      ----- ------------  ---------------
    87      0.502881   9 Cl s                83     -0.258893   9 Cl s         
     2      0.230905   1 C  s                 6      0.183437   1 C  s         
    91      0.181234   9 Cl s                17      0.164177   2 C  s         

 Vector   13  Occ=2.000000D+00  E=-1.099437D+00  Symmetry=a'
              MO Center= -2.2D-02, -4.4D-01, -1.1D-17, r^2= 3.8D+00
   Bfn.  Coefficient  Atom+Function         Bfn.  Coefficient  Atom+Function  
  ----- ------------  ---------------      ----- ------------  ---------------
    87      0.322167   9 Cl s                32     -0.272121   3 C  s         
    47     -0.197526   4 C  s                36     -0.195200   3 C  s         
    17     -0.183220   2 C  s                83     -0.163719   9 Cl s         

 Vector   14  Occ=2.000000D+00  E=-9.952011D-01  Symmetry=a'
              MO Center= -3.0D-02, -1.5D-01, -1.3D-17, r^2= 4.6D+00
   Bfn.  Coefficient  Atom+Function         Bfn.  Coefficient  Atom+Function  
  ----- ------------  ---------------      ----- ------------  ---------------
    87      0.318065   9 Cl s                47      0.227630   4 C  s         
    17     -0.215426   2 C  s                 2     -0.175980   1 C  s         
     6     -0.163139   1 C  s                91      0.163730   9 Cl s         
    83     -0.158788   9 Cl s                34     -0.153281   3 C  py        

 Vector   15  Occ=2.000000D+00  E=-8.454107D-01  Symmetry=a'
              MO Center= -4.2D-02, -1.6D+00, -2.7D-17, r^2= 5.1D+00
   Bfn.  Coefficient  Atom+Function         Bfn.  Coefficient  Atom+Function  
  ----- ------------  ---------------      ----- ------------  ---------------
    64      0.222083   5 F  py               63     -0.209872   5 F  px        
    47      0.199314   4 C  s                32     -0.175526   3 C  s         
    87     -0.173031   9 Cl s                 2      0.164049   1 C  s         
    19      0.163824   2 C  py               66     -0.150422   5 F  s         

 Vector   16  Occ=2.000000D+00  E=-7.972590D-01  Symmetry=a'
              MO Center=  1.0D-01, -1.8D-01, -3.8D-16, r^2= 4.4D+00
   Bfn.  Coefficient  Atom+Function         Bfn.  Coefficient  Atom+Function  
  ----- ------------  ---------------      ----- ------------  ---------------
     6      0.176089   1 C  s                17     -0.169624   2 C  s         
     2      0.167387   1 C  s                48      0.166113   4 C  px        
     3      0.164702   1 C  px              101      0.155511  10 H  s         
    21     -0.153823   2 C  s                18      0.152930   2 C  px        
    63      0.150284   5 F  px        

 Vector   17  Occ=2.000000D+00  E=-7.292307D-01  Symmetry=a'
              MO Center= -7.9D-02, -2.0D+00,  1.3D-16, r^2= 4.7D+00
   Bfn.  Coefficient  Atom+Function         Bfn.  Coefficient  Atom+Function  
  ----- ------------  ---------------      ----- ------------  ---------------
    64      0.393698   5 F  py               68      0.270492   5 F  py        
    48      0.238639   4 C  px                3     -0.177444   1 C  px        
    63      0.174440   5 F  px        

 Vector   18  Occ=2.000000D+00  E=-7.045892D-01  Symmetry=a'
              MO Center=  1.4D-01, -1.5D+00, -1.5D-18, r^2= 4.3D+00
   Bfn.  Coefficient  Atom+Function         Bfn.  Coefficient  Atom+Function  
  ----- ------------  ---------------      ----- ------------  ---------------
    63      0.329214   5 F  px               49      0.258356   4 C  py        
    67      0.225252   5 F  px               33     -0.211931   3 C  px        
    34     -0.205150   3 C  py               64     -0.158800   5 F  py        
    18     -0.154751   2 C  px        

 Vector   19  Occ=2.000000D+00  E=-6.877044D-01  Symmetry=a"
              MO Center=  5.1D-02, -3.4D+00,  1.6D-17, r^2= 6.8D-01
   Bfn.  Coefficient  Atom+Function         Bfn.  Coefficient  Atom+Function  
  ----- ------------  ---------------      ----- ------------  ---------------
    65      0.617561   5 F  pz               69      0.433964   5 F  pz        
    50      0.156964   4 C  pz        

 Vector   20  Occ=2.000000D+00  E=-6.363173D-01  Symmetry=a'
              MO Center=  2.7D-01, -2.8D-01, -3.8D-17, r^2= 4.3D+00
   Bfn.  Coefficient  Atom+Function         Bfn.  Coefficient  Atom+Function  
  ----- ------------  ---------------      ----- ------------  ---------------
     3      0.290540   1 C  px               19     -0.278870   2 C  py        
    64      0.236310   5 F  py               34      0.183980   3 C  py        
    68      0.170966   5 F  py                7      0.154977   1 C  px        
    33     -0.155493   3 C  px              101      0.153135  10 H  s         

 Vector   21  Occ=2.000000D+00  E=-6.108381D-01  Symmetry=a'
              MO Center= -1.5D-01, -3.8D-01,  1.4D-16, r^2= 7.0D+00
   Bfn.  Coefficient  Atom+Function         Bfn.  Coefficient  Atom+Function  
  ----- ------------  ---------------      ----- ------------  ---------------
    63      0.340813   5 F  px               89      0.296274   9 Cl py        
     4     -0.249564   1 C  py               67      0.250700   5 F  px        
    18      0.244236   2 C  px               91      0.150672   9 Cl s         

 Vector   22  Occ=2.000000D+00  E=-5.605711D-01  Symmetry=a'
              MO Center= -6.3D-02, -1.3D+00,  2.0D-16, r^2= 5.2D+00
   Bfn.  Coefficient  Atom+Function         Bfn.  Coefficient  Atom+Function  
  ----- ------------  ---------------      ----- ------------  ---------------
    63     -0.297168   5 F  px               48      0.275826   4 C  px        
    33     -0.240346   3 C  px               89      0.232669   9 Cl py        
    67     -0.226920   5 F  px               80     -0.184980   8 H  s         
    37     -0.181558   3 C  px                4     -0.172716   1 C  py        
    34     -0.166364   3 C  py               81     -0.163001   8 H  s         

 Vector   23  Occ=2.000000D+00  E=-5.371874D-01  Symmetry=a'
              MO Center=  5.8D-02,  5.1D-01,  7.5D-17, r^2= 3.9D+00
   Bfn.  Coefficient  Atom+Function         Bfn.  Coefficient  Atom+Function  
  ----- ------------  ---------------      ----- ------------  ---------------
    89      0.338561   9 Cl py               18     -0.241765   2 C  px        
    33      0.208256   3 C  px                3      0.186678   1 C  px        
    76      0.183822   6 H  s                34     -0.180244   3 C  py        
    19      0.172721   2 C  py               22     -0.164406   2 C  px        

 Vector   24  Occ=2.000000D+00  E=-5.221004D-01  Symmetry=a"
              MO Center=  4.5D-02,  1.7D+00, -1.5D-16, r^2= 2.8D+00
   Bfn.  Coefficient  Atom+Function         Bfn.  Coefficient  Atom+Function  
  ----- ------------  ---------------      ----- ------------  ---------------
    90      0.526270   9 Cl pz               94      0.262882   9 Cl pz        
     5      0.260350   1 C  pz               86     -0.204233   9 Cl pz        
    20      0.200276   2 C  pz                9      0.176664   1 C  pz        

 Vector   25  Occ=2.000000D+00  E=-4.556259D-01  Symmetry=a'
              MO Center= -3.8D-02,  2.6D+00,  1.2D-16, r^2= 1.6D+00
   Bfn.  Coefficient  Atom+Function         Bfn.  Coefficient  Atom+Function  
  ----- ------------  ---------------      ----- ------------  ---------------
    88      0.662683   9 Cl px               92      0.372058   9 Cl px        
    84     -0.254637   9 Cl px               89      0.241650   9 Cl py        

 Vector   26  Occ=2.000000D+00  E=-4.428976D-01  Symmetry=a"
              MO Center= -3.1D-02,  2.2D-02,  3.2D-17, r^2= 5.2D+00
   Bfn.  Coefficient  Atom+Function         Bfn.  Coefficient  Atom+Function  
  ----- ------------  ---------------      ----- ------------  ---------------
    90      0.407514   9 Cl pz               35     -0.300171   3 C  pz        
    94      0.239596   9 Cl pz               20     -0.222169   2 C  pz        
    39     -0.221982   3 C  pz               50     -0.220013   4 C  pz        
    24     -0.160282   2 C  pz               86     -0.156302   9 Cl pz        
    65      0.152919   5 F  pz        

 Vector   27  Occ=2.000000D+00  E=-3.237415D-01  Symmetry=a"
              MO Center=  2.5D-02, -1.5D-01, -3.5D-16, r^2= 4.6D+00
   Bfn.  Coefficient  Atom+Function         Bfn.  Coefficient  Atom+Function  
  ----- ------------  ---------------      ----- ------------  ---------------
     5      0.301052   1 C  pz               50     -0.289944   4 C  pz        
    90     -0.287239   9 Cl pz                9      0.270636   1 C  pz        
    20      0.240946   2 C  pz               35     -0.228860   3 C  pz        
    54     -0.225788   4 C  pz               24      0.210224   2 C  pz        
    39     -0.210374   3 C  pz               94     -0.208018   9 Cl pz        

 Vector   28  Occ=0.000000D+00  E= 1.103290D-01  Symmetry=a"
              MO Center=  1.2D-02, -3.9D-01, -6.9D-17, r^2= 4.2D+00
   Bfn.  Coefficient  Atom+Function         Bfn.  Coefficient  Atom+Function  
  ----- ------------  ---------------      ----- ------------  ---------------
     9      0.543559   1 C  pz               54      0.459406   4 C  pz        
    24     -0.413560   2 C  pz               50      0.332739   4 C  pz        
     5      0.328275   1 C  pz               39     -0.284182   3 C  pz        
    20     -0.246303   2 C  pz               35     -0.186581   3 C  pz        
    94     -0.169101   9 Cl pz        

 Vector   29  Occ=0.000000D+00  E= 2.122454D-01  Symmetry=a'
              MO Center=  5.4D-03,  2.0D+00,  1.8D-16, r^2= 3.8D+00
   Bfn.  Coefficient  Atom+Function         Bfn.  Coefficient  Atom+Function  
  ----- ------------  ---------------      ----- ------------  ---------------
     6      1.431984   1 C  s                93      1.011967   9 Cl py        
    91     -0.902346   9 Cl s                 8      0.854751   1 C  py        
    77     -0.657634   6 H  s                21      0.635678   2 C  s         
   102     -0.503116  10 H  s                92     -0.469914   9 Cl px        
     4      0.306355   1 C  py               22     -0.288429   2 C  px        

 Vector   30  Occ=0.000000D+00  E= 2.340688D-01  Symmetry=a'
              MO Center=  3.4D-01, -4.4D-01,  1.6D-16, r^2= 6.5D+00
   Bfn.  Coefficient  Atom+Function         Bfn.  Coefficient  Atom+Function  
  ----- ------------  ---------------      ----- ------------  ---------------
   102      1.190094  10 H  s                79      1.046097   7 H  s         
    81     -0.932323   8 H  s                77     -0.898368   6 H  s         
    51      0.692876   4 C  s                 7     -0.659918   1 C  px        
     6     -0.631504   1 C  s                36     -0.562659   3 C  s         
    22     -0.473478   2 C  px               37     -0.429906   3 C  px        

 Vector   31  Occ=0.000000D+00  E= 2.352404D-01  Symmetry=a"
              MO Center= -1.5D-03, -7.1D-01, -2.0D-15, r^2= 3.6D+00
   Bfn.  Coefficient  Atom+Function         Bfn.  Coefficient  Atom+Function  
  ----- ------------  ---------------      ----- ------------  ---------------
    39     -0.824913   3 C  pz               24      0.779855   2 C  pz        
    54      0.599552   4 C  pz                9     -0.540368   1 C  pz        
    35     -0.317919   3 C  pz               20      0.285154   2 C  pz        
    50      0.229783   4 C  pz                5     -0.159707   1 C  pz        
    94      0.156473   9 Cl pz        

 Vector   32  Occ=0.000000D+00  E= 2.765956D-01  Symmetry=a'
              MO Center= -2.8D-01, -1.2D+00,  3.0D-16, r^2= 5.5D+00
   Bfn.  Coefficient  Atom+Function         Bfn.  Coefficient  Atom+Function  
  ----- ------------  ---------------      ----- ------------  ---------------
    36      1.522308   3 C  s                79     -1.310225   7 H  s         
    21      1.289682   2 C  s                81     -0.990383   8 H  s         
    77     -0.965457   6 H  s                 6     -0.914124   1 C  s         
    51      0.676987   4 C  s                37      0.624470   3 C  px        
    53     -0.626857   4 C  py               52     -0.593510   4 C  px        

 Vector   33  Occ=0.000000D+00  E= 2.865002D-01  Symmetry=a'
              MO Center= -4.8D-01, -1.0D+00, -2.5D-16, r^2= 7.7D+00
   Bfn.  Coefficient  Atom+Function         Bfn.  Coefficient  Atom+Function  
  ----- ------------  ---------------      ----- ------------  ---------------
    81      1.736199   8 H  s                51     -1.433802   4 C  s         
   102      1.303114  10 H  s                52      0.855926   4 C  px        
     6     -0.839040   1 C  s                 7     -0.698423   1 C  px        
    36      0.490341   3 C  s                77     -0.480373   6 H  s         
    53     -0.412189   4 C  py               37     -0.326529   3 C  px        

 Vector   34  Occ=0.000000D+00  E= 3.107890D-01  Symmetry=a'
              MO Center=  2.4D-01,  3.1D-02,  2.3D-16, r^2= 6.5D+00
   Bfn.  Coefficient  Atom+Function         Bfn.  Coefficient  Atom+Function  
  ----- ------------  ---------------      ----- ------------  ---------------
   102     -1.224560  10 H  s                77     -1.215704   6 H  s         
    21      1.137745   2 C  s                79      1.051488   7 H  s         
     7      0.851983   1 C  px               36     -0.771592   3 C  s         
    22     -0.637066   2 C  px                6      0.593195   1 C  s         
    51     -0.576147   4 C  s                37     -0.569300   3 C  px        

 Vector   35  Occ=0.000000D+00  E= 3.672532D-01  Symmetry=a'
              MO Center= -1.7D-01, -1.4D+00,  8.8D-16, r^2= 6.4D+00
   Bfn.  Coefficient  Atom+Function         Bfn.  Coefficient  Atom+Function  
  ----- ------------  ---------------      ----- ------------  ---------------
    37     -1.543762   3 C  px               22      1.486386   2 C  px        
    77      1.436872   6 H  s                79      1.408553   7 H  s         
    53     -1.366426   4 C  py               66     -0.911067   5 F  s         
     6     -0.855684   1 C  s                 8      0.851185   1 C  py        
    23      0.588609   2 C  py               68     -0.381123   5 F  py        

 Vector   36  Occ=0.000000D+00  E= 4.563398D-01  Symmetry=a'
              MO Center= -1.9D-01,  5.5D-01,  1.0D-15, r^2= 5.9D+00
   Bfn.  Coefficient  Atom+Function         Bfn.  Coefficient  Atom+Function  
  ----- ------------  ---------------      ----- ------------  ---------------
    23      3.014461   2 C  py               36      2.598723   3 C  s         
     6     -2.491378   1 C  s                 7      2.046601   1 C  px        
    37     -1.904679   3 C  px               51     -1.880615   4 C  s         
   102     -1.206203  10 H  s                91      1.154414   9 Cl s         
    79      1.020328   7 H  s                21      0.973836   2 C  s         

 Vector   37  Occ=0.000000D+00  E= 4.960565D-01  Symmetry=a'
              MO Center=  4.6D-01,  1.9D-01,  2.4D-16, r^2= 5.6D+00
   Bfn.  Coefficient  Atom+Function         Bfn.  Coefficient  Atom+Function  
  ----- ------------  ---------------      ----- ------------  ---------------
    21      4.601264   2 C  s                38     -2.990995   3 C  py        
    22      2.516453   2 C  px                6     -2.373641   1 C  s         
     8      2.284287   1 C  py               36     -1.582909   3 C  s         
    52     -1.341603   4 C  px               51     -1.285668   4 C  s         
    77      1.025046   6 H  s                66      0.850785   5 F  s         

 Vector   38  Occ=0.000000D+00  E= 5.512521D-01  Symmetry=a'
              MO Center= -1.5D-01, -2.8D-01,  1.8D-15, r^2= 6.3D+00
   Bfn.  Coefficient  Atom+Function         Bfn.  Coefficient  Atom+Function  
  ----- ------------  ---------------      ----- ------------  ---------------
    36      2.509344   3 C  s                51     -2.485985   4 C  s         
    38     -2.389074   3 C  py               53     -1.725830   4 C  py        
    52     -1.637186   4 C  px               21     -1.203574   2 C  s         
    23     -1.180516   2 C  py               37     -0.998481   3 C  px        
     7     -0.986231   1 C  px                8     -0.937783   1 C  py        


 center of mass
 --------------
 x =  -0.00311738 y =   0.02556698 z =   0.00000000

 moments of inertia (a.u.)
 ------------------
        2217.146233962320           0.000000000000           0.000000000000
           0.000000000000          60.774565671968           0.000000000000
           0.000000000000           0.000000000000        2277.920799634288

  Mulliken analysis of the total density
  --------------------------------------

    Atom       Charge   Shell Charges
 -----------   ------   -------------------------------------------------------
    1 C    6     6.32   2.00  0.66  1.93  0.59  1.07  0.08
    2 C    6     6.13   2.00  0.67  2.00  0.48  0.93  0.06
    3 C    6     6.26   2.00  0.66  2.02  0.51  1.01  0.06
    4 C    6     5.77   2.00  0.67  1.86  0.44  0.72  0.09
    5 F    9     9.37   2.00  0.98  3.29  0.87  2.12  0.12
    6 H    1     0.78   0.52  0.26
    7 H    1     0.78   0.52  0.26
    8 H    1     0.80   0.53  0.27
    9 Cl  17    17.02   2.00  2.00  5.98  1.35  3.57  0.58  1.49  0.05
   10 H    1     0.76   0.52  0.24

       Multipole analysis of the density wrt the origin
       ------------------------------------------------

     L   x y z        total         open         nuclear
     -   - - -        -----         ----         -------
     0   0 0 0     -0.000000      0.000000     54.000000

     1   1 0 0     -0.111883      0.000000     -0.000000
     1   0 1 0     -0.176359      0.000000     -0.000000
     1   0 0 1      0.000000      0.000000      0.000000

     2   2 0 0    -26.888600      0.000000     45.598930
     2   1 1 0      2.473814      0.000000      7.304586
     2   1 0 1      0.000000      0.000000      0.000000
     2   0 2 0    -38.236308      0.000000   1088.563098
     2   0 1 1      0.000000      0.000000      0.000000
     2   0 0 2    -32.538525      0.000000      0.000000


 Parallel integral file used     109 records with       0 large values

                              NWChem Gradients Module
                              -----------------------


                                       mol2


  wavefunction    =   RHF     

  Using symmetry


                         RHF ENERGY GRADIENTS

    atom               coordinates                        gradient
                 x          y          z           x          y          z
   1 C       1.006190   2.284495   0.000000    0.002905   0.021369   0.000000
   2 C      -0.442691   0.217226   0.000000    0.000201  -0.026133   0.000000
   3 C       0.587140  -2.308317   0.000000   -0.001006   0.031461   0.000000
   4 C      -0.846440  -4.380639   0.000000   -0.013582  -0.001394   0.000000
   5 F       0.194917  -6.700521   0.000000    0.005662  -0.015874   0.000000
   6 H      -2.489686   0.414806   0.000000   -0.009044  -0.000776   0.000000
   7 H       2.629078  -2.535564   0.000000    0.008669   0.000312   0.000000
   8 H      -2.885447  -4.488105   0.000000   -0.006717  -0.003408   0.000000
   9 Cl     -0.228555   5.279234   0.000000    0.004544  -0.010018   0.000000
  10 H       3.052056   2.289990   0.000000    0.008369   0.004461   0.000000

                 ----------------------------------------
                 |  Time  |  1-e(secs)   |  2-e(secs)   |
                 ----------------------------------------
                 |  CPU   |       0.01   |       4.72   |
                 ----------------------------------------
                 |  WALL  |       0.01   |       4.72   |
                 ----------------------------------------

@ Step       Energy      Delta E   Gmax     Grms     Xrms     Xmax   Walltime
@ ---- ---------------- -------- -------- -------- -------- -------- --------
@    0    -712.66637056  0.0D+00  0.02533  0.00777  0.00000  0.00000      7.7
                                                                    



                                Z-matrix (autoz)
                                -------- 

 Units are Angstrom for bonds and degrees for angles

      Type          Name      I     J     K     L     M      Value     Gradient
      ----------- --------  ----- ----- ----- ----- ----- ---------- ----------
    1 Stretch                  1     2                       1.33588    0.02203
    2 Stretch                  1     9                       1.71416   -0.01099
    3 Stretch                  1    10                       1.08263    0.00838
    4 Stretch                  2     3                       1.44330   -0.01291
    5 Stretch                  2     6                       1.08826    0.00893
    6 Stretch                  3     4                       1.33345    0.02533
    7 Stretch                  3     7                       1.08722    0.00858
    8 Stretch                  4     5                       1.34564    0.01680
    9 Stretch                  4     8                       1.08049    0.00689
   10 Bend                     1     2     3               122.79067   -0.00009
   11 Bend                     1     2     6               119.51212    0.00094
   12 Bend                     2     1     9               122.56806   -0.00117
   13 Bend                     2     1    10               125.17926    0.00299
   14 Bend                     2     3     4               123.14153    0.00122
   15 Bend                     2     3     7               118.53429   -0.00130
   16 Bend                     3     2     6               117.69721   -0.00085
   17 Bend                     3     4     5               121.15099    0.00010
   18 Bend                     3     4     8               127.69147    0.00160
   19 Bend                     4     3     7               118.32418    0.00008
   20 Bend                     5     4     8               111.15754   -0.00170
   21 Bend                     9     1    10               112.25268   -0.00182
   22 Torsion                  1     2     3     4         180.00000    0.00000
   23 Torsion                  1     2     3     7           0.00000    0.00000
   24 Torsion                  2     3     4     5         180.00000    0.00000
   25 Torsion                  2     3     4     8           0.00000    0.00000
   26 Torsion                  3     2     1     9         180.00000    0.00000
   27 Torsion                  3     2     1    10           0.00000    0.00000
   28 Torsion                  4     3     2     6           0.00000    0.00000
   29 Torsion                  5     4     3     7           0.00000    0.00000
   30 Torsion                  6     2     1     9           0.00000    0.00000
   31 Torsion                  6     2     1    10         180.00000    0.00000
   32 Torsion                  6     2     3     7         180.00000    0.00000
   33 Torsion                  7     3     4     8         180.00000    0.00000

                                 NWChem SCF Module
                                 -----------------


                                       mol2



  ao basis        = "ao basis"
  functions       =   102
  atoms           =    10
  closed shells   =    27
  open shells     =     0
  charge          =   0.00
  wavefunction    = RHF 
  input vectors   = ./molecule.movecs
  output vectors  = ./molecule.movecs
  use symmetry    = T
  symmetry adapt  = T


 Summary of "ao basis" -> "ao basis" (cartesian)
 ------------------------------------------------------------------------------
       Tag                 Description            Shells   Functions and Types
 ---------------- ------------------------------  ------  ---------------------
 C                           6-31G*                  6       15   3s2p1d
 F                           6-31G*                  6       15   3s2p1d
 H                           6-31G*                  2        2   2s
 Cl                          6-31G*                  8       19   4s3p1d


      Symmetry analysis of basis
      --------------------------

        a'         77
        a"         25


 Forming initial guess at       7.7s


 Loading old vectors from job with title :

mol2


      Symmetry analysis of molecular orbitals - initial
      -------------------------------------------------

  Numbering of irreducible representations: 

     1 a'          2 a"      

  Orbital symmetries:

     1 a'          2 a'          3 a'          4 a'          5 a'      
     6 a'          7 a'          8 a'          9 a'         10 a"      
    11 a'         12 a'         13 a'         14 a'         15 a'      
    16 a'         17 a'         18 a'         19 a"         20 a'      
    21 a'         22 a'         23 a'         24 a"         25 a'      
    26 a"         27 a"         28 a"         29 a'         30 a'      
    31 a"         32 a'         33 a'         34 a'         35 a'      
    36 a'         37 a'      


 Starting SCF solution at       7.7s



 ----------------------------------------------
         Quadratically convergent ROHF

 Convergence threshold     :          1.000E-04
 Maximum no. of iterations :           30
 Final Fock-matrix accuracy:          1.000E-07
 ----------------------------------------------


 Integral file          = ./molecule.aoints.0
 Record size in doubles =    65536    No. of integs per rec  =    43688
 Max. records in memory =      281    Max. records in file   =  1613238
 No. of bits per label  =        8    No. of bits per value  =       64


 #quartets = 4.283D+05 #integrals = 4.777D+06 #direct =  0.0% #cached =100.0%


              iter       energy          gnorm     gmax       time
             ----- ------------------- --------- --------- --------
                 1     -712.6672499502  1.13D-01  1.94D-02      9.2
                 2     -712.6682990973  6.23D-03  1.09D-03      9.4
                 3     -712.6683032164  2.88D-05  7.94D-06      9.7


       Final RHF  results 
       ------------------ 

         Total SCF energy =   -712.668303216417
      One-electron energy =  -1466.570428247352
      Two-electron energy =    509.539616326940
 Nuclear repulsion energy =    244.362508703995

        Time for solution =      2.0s



       Symmetry analysis of molecular orbitals - final
       -----------------------------------------------

  Numbering of irreducible representations: 

     1 a'          2 a"      

  Orbital symmetries:

     1 a'          2 a'          3 a'          4 a'          5 a'      
     6 a'          7 a'          8 a'          9 a'         10 a"      
    11 a'         12 a'         13 a'         14 a'         15 a'      
    16 a'         17 a'         18 a'         19 a"         20 a'      
    21 a'         22 a'         23 a'         24 a"         25 a'      
    26 a"         27 a"         28 a"         29 a'         30 a'      
    31 a"         32 a'         33 a'         34 a'         35 a'      
    36 a'         37 a'      

             Final eigenvalues
             -----------------

              1      
    1 -104.8292
    2  -26.3182
    3  -11.3329
    4  -11.2985
    5  -11.2631
    6  -11.2500
    7  -10.5630
    8   -8.0325
    9   -8.0291
   10   -8.0290
   11   -1.6382
   12   -1.1688
   13   -1.1014
   14   -1.0030
   15   -0.8485
   16   -0.8015
   17   -0.7386
   18   -0.7091
   19   -0.6970
   20   -0.6362
   21   -0.6125
   22   -0.5624
   23   -0.5344
   24   -0.5206
   25   -0.4552
   26   -0.4433
   27   -0.3294
   28    0.1203
   29    0.2095
   30    0.2372
   31    0.2387
   32    0.2825
   33    0.2944
   34    0.3115
   35    0.3727
   36    0.4609
   37    0.4968

                       ROHF Final Molecular Orbital Analysis
                       -------------------------------------

 Vector   12  Occ=2.000000D+00  E=-1.168752D+00  Symmetry=a'
              MO Center=  7.5D-02,  1.6D+00,  3.2D-17, r^2= 2.2D+00
   Bfn.  Coefficient  Atom+Function         Bfn.  Coefficient  Atom+Function  
  ----- ------------  ---------------      ----- ------------  ---------------
    87      0.482471   9 Cl s                83     -0.248573   9 Cl s         
     2      0.233840   1 C  s                 6      0.186951   1 C  s         
    17      0.176531   2 C  s                91      0.173989   9 Cl s         

 Vector   13  Occ=2.000000D+00  E=-1.101385D+00  Symmetry=a'
              MO Center= -2.3D-02, -4.2D-01, -1.0D-17, r^2= 4.1D+00
   Bfn.  Coefficient  Atom+Function         Bfn.  Coefficient  Atom+Function  
  ----- ------------  ---------------      ----- ------------  ---------------
    87      0.339544   9 Cl s                32     -0.268566   3 C  s         
    47     -0.205699   4 C  s                36     -0.192166   3 C  s         
    83     -0.172744   9 Cl s                17     -0.163782   2 C  s         

 Vector   14  Occ=2.000000D+00  E=-1.002996D+00  Symmetry=a'
              MO Center= -2.1D-02, -1.6D-02, -2.7D-18, r^2= 4.5D+00
   Bfn.  Coefficient  Atom+Function         Bfn.  Coefficient  Atom+Function  
  ----- ------------  ---------------      ----- ------------  ---------------
    87      0.337995   9 Cl s                17     -0.219587   2 C  s         
    47      0.216470   4 C  s                 2     -0.176189   1 C  s         
    91      0.170642   9 Cl s                83     -0.169009   9 Cl s         
     6     -0.159941   1 C  s                 4      0.153626   1 C  py        

 Vector   15  Occ=2.000000D+00  E=-8.485453D-01  Symmetry=a'
              MO Center= -4.7D-02, -1.8D+00, -2.0D-17, r^2= 4.5D+00
   Bfn.  Coefficient  Atom+Function         Bfn.  Coefficient  Atom+Function  
  ----- ------------  ---------------      ----- ------------  ---------------
    64     -0.234842   5 F  py               63      0.232195   5 F  px        
    47     -0.195912   4 C  s                32      0.178661   3 C  s         
    66      0.158569   5 F  s                49      0.156479   4 C  py        
    68     -0.153832   5 F  py               19     -0.152446   2 C  py        
    87      0.151930   9 Cl s         

 Vector   16  Occ=2.000000D+00  E=-8.014680D-01  Symmetry=a'
              MO Center=  9.5D-02, -1.8D-01, -3.6D-16, r^2= 4.3D+00
   Bfn.  Coefficient  Atom+Function         Bfn.  Coefficient  Atom+Function  
  ----- ------------  ---------------      ----- ------------  ---------------
     6      0.177225   1 C  s                 2      0.174897   1 C  s         
    17     -0.168555   2 C  s                48      0.168776   4 C  px        
     3      0.163143   1 C  px              101      0.158345  10 H  s         
    18      0.156433   2 C  px               76     -0.150742   6 H  s         

 Vector   17  Occ=2.000000D+00  E=-7.385662D-01  Symmetry=a'
              MO Center= -7.9D-02, -1.9D+00,  1.3D-16, r^2= 4.7D+00
   Bfn.  Coefficient  Atom+Function         Bfn.  Coefficient  Atom+Function  
  ----- ------------  ---------------      ----- ------------  ---------------
    64      0.398042   5 F  py               68      0.270507   5 F  py        
    48      0.233691   4 C  px                3     -0.179002   1 C  px        
    63      0.158534   5 F  px        

 Vector   18  Occ=2.000000D+00  E=-7.090828D-01  Symmetry=a'
              MO Center=  1.7D-01, -1.5D+00, -1.6D-17, r^2= 4.1D+00
   Bfn.  Coefficient  Atom+Function         Bfn.  Coefficient  Atom+Function  
  ----- ------------  ---------------      ----- ------------  ---------------
    63      0.337234   5 F  px               49      0.250949   4 C  py        
    67      0.229979   5 F  px               33     -0.214603   3 C  px        
    34     -0.210532   3 C  py        

 Vector   19  Occ=2.000000D+00  E=-6.969911D-01  Symmetry=a"
              MO Center=  4.8D-02, -3.3D+00,  5.1D-17, r^2= 6.8D-01
   Bfn.  Coefficient  Atom+Function         Bfn.  Coefficient  Atom+Function  
  ----- ------------  ---------------      ----- ------------  ---------------
    65      0.615092   5 F  pz               69      0.430571   5 F  pz        
    50      0.163147   4 C  pz        

 Vector   20  Occ=2.000000D+00  E=-6.362474D-01  Symmetry=a'
              MO Center=  2.8D-01, -2.5D-01, -4.9D-17, r^2= 4.1D+00
   Bfn.  Coefficient  Atom+Function         Bfn.  Coefficient  Atom+Function  
  ----- ------------  ---------------      ----- ------------  ---------------
     3      0.297193   1 C  px               19     -0.285647   2 C  py        
    64      0.224752   5 F  py               34      0.189547   3 C  py        
    68      0.161797   5 F  py               33     -0.156805   3 C  px        
     7      0.154721   1 C  px              101      0.155395  10 H  s         

 Vector   21  Occ=2.000000D+00  E=-6.125449D-01  Symmetry=a'
              MO Center= -1.6D-01, -2.3D-01,  1.6D-16, r^2= 6.7D+00
   Bfn.  Coefficient  Atom+Function         Bfn.  Coefficient  Atom+Function  
  ----- ------------  ---------------      ----- ------------  ---------------
    63      0.321539   5 F  px               89      0.294171   9 Cl py        
    18      0.259258   2 C  px                4     -0.256562   1 C  py        
    67      0.236927   5 F  px               91      0.151702   9 Cl s         

 Vector   22  Occ=2.000000D+00  E=-5.624077D-01  Symmetry=a'
              MO Center= -8.0D-02, -1.5D+00,  1.9D-16, r^2= 4.5D+00
   Bfn.  Coefficient  Atom+Function         Bfn.  Coefficient  Atom+Function  
  ----- ------------  ---------------      ----- ------------  ---------------
    63      0.302884   5 F  px               48     -0.285781   4 C  px        
    33      0.260112   3 C  px               67      0.231707   5 F  px        
    89     -0.195714   9 Cl py               80      0.193899   8 H  s         
    37      0.186670   3 C  px               81      0.171073   8 H  s         
    78      0.159255   7 H  s                 4      0.154009   1 C  py        

 Vector   23  Occ=2.000000D+00  E=-5.343830D-01  Symmetry=a'
              MO Center=  6.1D-02,  6.8D-01,  7.9D-17, r^2= 3.9D+00
   Bfn.  Coefficient  Atom+Function         Bfn.  Coefficient  Atom+Function  
  ----- ------------  ---------------      ----- ------------  ---------------
    89      0.365297   9 Cl py               18     -0.229610   2 C  px        
    34     -0.196199   3 C  py                3      0.188850   1 C  px        
    33      0.181978   3 C  px               19      0.179457   2 C  py        
    76      0.175473   6 H  s                22     -0.159783   2 C  px        

 Vector   24  Occ=2.000000D+00  E=-5.205657D-01  Symmetry=a"
              MO Center=  3.9D-02,  1.7D+00, -1.6D-16, r^2= 2.9D+00
   Bfn.  Coefficient  Atom+Function         Bfn.  Coefficient  Atom+Function  
  ----- ------------  ---------------      ----- ------------  ---------------
    90      0.515584   9 Cl pz                5      0.264192   1 C  pz        
    94      0.258287   9 Cl pz               20      0.207774   2 C  pz        
    86     -0.200119   9 Cl pz                9      0.178275   1 C  pz        

 Vector   25  Occ=2.000000D+00  E=-4.551698D-01  Symmetry=a'
              MO Center= -5.7D-02,  2.6D+00,  1.2D-16, r^2= 1.6D+00
   Bfn.  Coefficient  Atom+Function         Bfn.  Coefficient  Atom+Function  
  ----- ------------  ---------------      ----- ------------  ---------------
    88      0.665142   9 Cl px               92      0.373055   9 Cl px        
    84     -0.255693   9 Cl px               89      0.239862   9 Cl py        

 Vector   26  Occ=2.000000D+00  E=-4.433261D-01  Symmetry=a"
              MO Center= -3.2D-02,  7.6D-02,  4.1D-18, r^2= 5.3D+00
   Bfn.  Coefficient  Atom+Function         Bfn.  Coefficient  Atom+Function  
  ----- ------------  ---------------      ----- ------------  ---------------
    90      0.419485   9 Cl pz               35     -0.297693   3 C  pz        
    94      0.245807   9 Cl pz               50     -0.220429   4 C  pz        
    39     -0.219065   3 C  pz               20     -0.214285   2 C  pz        
    86     -0.160978   9 Cl pz               65      0.156820   5 F  pz        
    24     -0.154788   2 C  pz        

 Vector   27  Occ=2.000000D+00  E=-3.294169D-01  Symmetry=a"
              MO Center=  2.8D-02, -1.4D-01, -2.8D-16, r^2= 4.6D+00
   Bfn.  Coefficient  Atom+Function         Bfn.  Coefficient  Atom+Function  
  ----- ------------  ---------------      ----- ------------  ---------------
     5      0.300873   1 C  pz               90     -0.289808   9 Cl pz        
    50     -0.286172   4 C  pz                9      0.264746   1 C  pz        
    20      0.242470   2 C  pz               35     -0.235234   3 C  pz        
    54     -0.218241   4 C  pz               39     -0.210776   3 C  pz        
    24      0.206076   2 C  pz               94     -0.207062   9 Cl pz        

 Vector   28  Occ=0.000000D+00  E= 1.203200D-01  Symmetry=a"
              MO Center=  1.3D-02, -3.8D-01, -8.9D-17, r^2= 4.1D+00
   Bfn.  Coefficient  Atom+Function         Bfn.  Coefficient  Atom+Function  
  ----- ------------  ---------------      ----- ------------  ---------------
     9      0.555616   1 C  pz               54      0.464911   4 C  pz        
    24     -0.435639   2 C  pz               50      0.329831   4 C  pz        
     5      0.327007   1 C  pz               39     -0.290153   3 C  pz        
    20     -0.250519   2 C  pz               35     -0.180817   3 C  pz        
    94     -0.165217   9 Cl pz        

 Vector   29  Occ=0.000000D+00  E= 2.095253D-01  Symmetry=a'
              MO Center= -2.5D-02,  2.0D+00,  1.5D-16, r^2= 3.8D+00
   Bfn.  Coefficient  Atom+Function         Bfn.  Coefficient  Atom+Function  
  ----- ------------  ---------------      ----- ------------  ---------------
     6      1.367742   1 C  s                93      1.000717   9 Cl py        
    91     -0.871214   9 Cl s                 8      0.849966   1 C  py        
    77     -0.648990   6 H  s                21      0.616557   2 C  s         
    92     -0.453038   9 Cl px              102     -0.449577  10 H  s         
     4      0.314911   1 C  py               89      0.287135   9 Cl py        

 Vector   30  Occ=0.000000D+00  E= 2.371594D-01  Symmetry=a'
              MO Center=  3.6D-01, -4.8D-01,  2.5D-16, r^2= 6.4D+00
   Bfn.  Coefficient  Atom+Function         Bfn.  Coefficient  Atom+Function  
  ----- ------------  ---------------      ----- ------------  ---------------
   102      1.219530  10 H  s                79      1.065052   7 H  s         
    81     -0.980724   8 H  s                77     -0.866336   6 H  s         
    51      0.751510   4 C  s                 6     -0.695435   1 C  s         
     7     -0.657580   1 C  px               36     -0.594423   3 C  s         
    22     -0.450363   2 C  px               37     -0.434473   3 C  px        

 Vector   31  Occ=0.000000D+00  E= 2.386821D-01  Symmetry=a"
              MO Center= -9.9D-04, -7.4D-01, -2.2D-15, r^2= 3.6D+00
   Bfn.  Coefficient  Atom+Function         Bfn.  Coefficient  Atom+Function  
  ----- ------------  ---------------      ----- ------------  ---------------
    39     -0.836547   3 C  pz               24      0.778937   2 C  pz        
    54      0.626605   4 C  pz                9     -0.548360   1 C  pz        
    35     -0.314520   3 C  pz               20      0.278712   2 C  pz        
    50      0.232326   4 C  pz                5     -0.156120   1 C  pz        
    94      0.153404   9 Cl pz        

 Vector   32  Occ=0.000000D+00  E= 2.825125D-01  Symmetry=a'
              MO Center= -4.3D-01, -1.3D+00,  1.6D-16, r^2= 5.8D+00
   Bfn.  Coefficient  Atom+Function         Bfn.  Coefficient  Atom+Function  
  ----- ------------  ---------------      ----- ------------  ---------------
    36      1.475200   3 C  s                79     -1.344463   7 H  s         
    81     -1.323197   8 H  s                21      1.281080   2 C  s         
    77     -0.950307   6 H  s                51      0.927707   4 C  s         
    52     -0.800371   4 C  px               37      0.738470   3 C  px        
     7      0.711785   1 C  px                6     -0.685913   1 C  s         

 Vector   33  Occ=0.000000D+00  E= 2.944418D-01  Symmetry=a'
              MO Center= -3.3D-01, -8.7D-01, -1.8D-16, r^2= 7.3D+00
   Bfn.  Coefficient  Atom+Function         Bfn.  Coefficient  Atom+Function  
  ----- ------------  ---------------      ----- ------------  ---------------
    81      1.543188   8 H  s                51     -1.307681   4 C  s         
   102      1.293460  10 H  s                 6     -1.009756   1 C  s         
    36      0.807025   3 C  s                52      0.741275   4 C  px        
    77     -0.742864   6 H  s                53     -0.593100   4 C  py        
     7     -0.583536   1 C  px               21      0.528941   2 C  s         

 Vector   34  Occ=0.000000D+00  E= 3.115134D-01  Symmetry=a'
              MO Center=  2.9D-01,  3.2D-03,  2.0D-16, r^2= 6.2D+00
   Bfn.  Coefficient  Atom+Function         Bfn.  Coefficient  Atom+Function  
  ----- ------------  ---------------      ----- ------------  ---------------
   102     -1.245454  10 H  s                77     -1.229349   6 H  s         
    21      1.135905   2 C  s                79      1.102811   7 H  s         
     7      0.834263   1 C  px               36     -0.818369   3 C  s         
     6      0.699306   1 C  s                22     -0.651600   2 C  px        
    37     -0.584096   3 C  px               51     -0.573004   4 C  s         

 Vector   35  Occ=0.000000D+00  E= 3.726550D-01  Symmetry=a'
              MO Center= -2.4D-01, -1.4D+00,  9.4D-16, r^2= 6.3D+00
   Bfn.  Coefficient  Atom+Function         Bfn.  Coefficient  Atom+Function  
  ----- ------------  ---------------      ----- ------------  ---------------
    37     -1.651954   3 C  px               22      1.514310   2 C  px        
    53     -1.509682   4 C  py               77      1.440945   6 H  s         
    79      1.419214   7 H  s                 6     -1.040183   1 C  s         
    66     -0.983479   5 F  s                 8      0.885202   1 C  py        
    23      0.734184   2 C  py               68     -0.377885   5 F  py        

 Vector   36  Occ=0.000000D+00  E= 4.608560D-01  Symmetry=a'
              MO Center= -1.9D-01,  5.0D-01,  1.1D-15, r^2= 6.0D+00
   Bfn.  Coefficient  Atom+Function         Bfn.  Coefficient  Atom+Function  
  ----- ------------  ---------------      ----- ------------  ---------------
    23      3.040350   2 C  py               36      2.679502   3 C  s         
     6     -2.405801   1 C  s                 7      2.082330   1 C  px        
    51     -1.953705   4 C  s                37     -1.888114   3 C  px        
   102     -1.269738  10 H  s                91      1.214543   9 Cl s         
    79      1.005020   7 H  s                21      0.902679   2 C  s         

 Vector   37  Occ=0.000000D+00  E= 4.968357D-01  Symmetry=a'
              MO Center=  4.9D-01,  2.3D-01,  3.5D-16, r^2= 5.7D+00
   Bfn.  Coefficient  Atom+Function         Bfn.  Coefficient  Atom+Function  
  ----- ------------  ---------------      ----- ------------  ---------------
    21      4.637760   2 C  s                38     -2.973831   3 C  py        
     6     -2.657051   1 C  s                22      2.541816   2 C  px        
     8      2.348771   1 C  py               51     -1.429528   4 C  s         
    52     -1.405027   4 C  px               36     -1.281129   3 C  s         
    77      1.042673   6 H  s                66      0.907192   5 F  s         

 Vector   38  Occ=0.000000D+00  E= 5.609536D-01  Symmetry=a'
              MO Center= -1.6D-01, -2.0D-02,  2.6D-15, r^2= 6.9D+00
   Bfn.  Coefficient  Atom+Function         Bfn.  Coefficient  Atom+Function  
  ----- ------------  ---------------      ----- ------------  ---------------
    36      2.685363   3 C  s                51     -2.639116   4 C  s         
    38     -2.368385   3 C  py               53     -1.709207   4 C  py        
    52     -1.649597   4 C  px               21     -1.236504   2 C  s         
    23     -1.088734   2 C  py               37     -1.086696   3 C  px        
     7     -0.962853   1 C  px               81     -0.852439   8 H  s         


 center of mass
 --------------
 x =  -0.00913587 y =   0.03430568 z =   0.00000000

 moments of inertia (a.u.)
 ------------------
        2199.846172484311           7.655816682620           0.000000000000
           7.655816682620          59.279172786748           0.000000000000
           0.000000000000           0.000000000000        2259.125345271058

  Mulliken analysis of the total density
  --------------------------------------

    Atom       Charge   Shell Charges
 -----------   ------   -------------------------------------------------------
    1 C    6     6.33   2.00  0.66  1.94  0.59  1.06  0.08
    2 C    6     6.12   2.00  0.67  2.01  0.47  0.92  0.06
    3 C    6     6.27   2.00  0.66  2.04  0.50  1.01  0.06
    4 C    6     5.77   2.00  0.67  1.89  0.43  0.69  0.09
    5 F    9     9.36   2.00  0.98  3.30  0.86  2.11  0.12
    6 H    1     0.78   0.53  0.25
    7 H    1     0.78   0.52  0.26
    8 H    1     0.80   0.54  0.27
    9 Cl  17    17.03   2.00  2.00  5.98  1.35  3.57  0.58  1.51  0.05
   10 H    1     0.77   0.52  0.24

       Multipole analysis of the density wrt the origin
       ------------------------------------------------

     L   x y z        total         open         nuclear
     -   - - -        -----         ----         -------
     0   0 0 0     -0.000000      0.000000     54.000000

     1   1 0 0     -0.103758      0.000000     -0.301311
     1   0 1 0     -0.271313      0.000000      0.412731
     1   0 0 1      0.000000      0.000000      0.000000

     2   2 0 0    -26.987437      0.000000     44.467312
     2   1 1 0      2.295648      0.000000      3.075927
     2   1 0 1      0.000000      0.000000      0.000000
     2   0 2 0    -37.864573      0.000000   1079.942665
     2   0 1 1      0.000000      0.000000      0.000000
     2   0 0 2    -32.405262      0.000000      0.000000


 Parallel integral file used     110 records with       0 large values

 Line search: 
     step= 1.00 grad=-4.7D-03 hess= 2.8D-03 energy=   -712.668303 mode=downhill
 new step= 0.84                   predicted energy=   -712.668372

          --------
          Step   1
          --------


                         Geometry "geometry" -> "geometry"
                         ---------------------------------

 Output coordinates in angstroms (scale by  1.889725989 to convert to a.u.)

  No.       Tag          Charge          X              Y              Z
 ---- ---------------- ---------- -------------- -------------- --------------
    1 C                    6.0000     0.51908779     1.19595171     0.00000000
    2 C                    6.0000    -0.23424076     0.11505294     0.00000000
    3 C                    6.0000     0.31852194    -1.23254757     0.00000000
    4 C                    6.0000    -0.43504327    -2.30707270     0.00000000
    5 F                    9.0000     0.10109701    -3.51873601     0.00000000
    6 H                    1.0000    -1.30557040     0.22332164     0.00000000
    7 H                    1.0000     1.38720682    -1.35962860     0.00000000
    8 H                    1.0000    -1.50620964    -2.34327809     0.00000000
    9 Cl                  17.0000    -0.13066204     2.79566749     0.00000000
   10 H                    1.0000     1.59091538     1.17791702     0.00000000

      Atomic Mass 
      ----------- 

      C                 12.000000
      F                 18.998400
      H                  1.007825
      Cl                34.968850


 Effective nuclear repulsion energy (a.u.)     244.1462777258

            Nuclear Dipole moment (a.u.) 
            ----------------------------
        X                 Y               Z
 ---------------- ---------------- ----------------
    -0.2552742670     0.3483926276     0.0000000000

      Symmetry information
      --------------------

 Group name             Cs        
 Group number              2
 Group order               2
 No. of unique centers    10

      Symmetry unique atoms

     1    2    3    4    5    6    7    8    9   10

                                 NWChem SCF Module
                                 -----------------


                                       mol2



  ao basis        = "ao basis"
  functions       =   102
  atoms           =    10
  closed shells   =    27
  open shells     =     0
  charge          =   0.00
  wavefunction    = RHF 
  input vectors   = ./molecule.movecs
  output vectors  = ./molecule.movecs
  use symmetry    = T
  symmetry adapt  = T


 Summary of "ao basis" -> "ao basis" (cartesian)
 ------------------------------------------------------------------------------
       Tag                 Description            Shells   Functions and Types
 ---------------- ------------------------------  ------  ---------------------
 C                           6-31G*                  6       15   3s2p1d
 F                           6-31G*                  6       15   3s2p1d
 H                           6-31G*                  2        2   2s
 Cl                          6-31G*                  8       19   4s3p1d


      Symmetry analysis of basis
      --------------------------

        a'         77
        a"         25


 Forming initial guess at       9.8s


 Loading old vectors from job with title :

mol2


      Symmetry analysis of molecular orbitals - initial
      -------------------------------------------------

  Numbering of irreducible representations: 

     1 a'          2 a"      

  Orbital symmetries:

     1 a'          2 a'          3 a'          4 a'          5 a'      
     6 a'          7 a'          8 a'          9 a'         10 a"      
    11 a'         12 a'         13 a'         14 a'         15 a'      
    16 a'         17 a'         18 a'         19 a"         20 a'      
    21 a'         22 a'         23 a'         24 a"         25 a'      
    26 a"         27 a"         28 a"         29 a'         30 a'      
    31 a"         32 a'         33 a'         34 a'         35 a'      
    36 a'         37 a'      


 Starting SCF solution at       9.9s



 ----------------------------------------------
         Quadratically convergent ROHF

 Convergence threshold     :          1.000E-04
 Maximum no. of iterations :           30
 Final Fock-matrix accuracy:          1.000E-07
 ----------------------------------------------


 Integral file          = ./molecule.aoints.0
 Record size in doubles =    65536    No. of integs per rec  =    43688
 Max. records in memory =      281    Max. records in file   =  1613145
 No. of bits per label  =        8    No. of bits per value  =       64


 #quartets = 4.277D+05 #integrals = 4.773D+06 #direct =  0.0% #cached =100.0%


              iter       energy          gnorm     gmax       time
             ----- ------------------- --------- --------- --------
                 1     -712.6683566058  1.79D-02  3.06D-03     11.3
                 2     -712.6683827409  2.83D-04  6.99D-05     11.6
                 3     -712.6683827530  5.23D-06  1.44D-06     11.8


       Final RHF  results 
       ------------------ 

         Total SCF energy =   -712.668382752986
      One-electron energy =  -1466.147637512106
      Two-electron energy =    509.332977033365
 Nuclear repulsion energy =    244.146277725755

        Time for solution =      2.0s



       Symmetry analysis of molecular orbitals - final
       -----------------------------------------------

  Numbering of irreducible representations: 

     1 a'          2 a"      

  Orbital symmetries:

     1 a'          2 a'          3 a'          4 a'          5 a'      
     6 a'          7 a'          8 a'          9 a'         10 a"      
    11 a'         12 a'         13 a'         14 a'         15 a'      
    16 a'         17 a'         18 a'         19 a"         20 a'      
    21 a'         22 a'         23 a'         24 a"         25 a'      
    26 a"         27 a"         28 a"         29 a'         30 a'      
    31 a"         32 a'         33 a'         34 a'         35 a'      
    36 a'         37 a'      

             Final eigenvalues
             -----------------

              1      
    1 -104.8294
    2  -26.3177
    3  -11.3339
    4  -11.2993
    5  -11.2639
    6  -11.2511
    7  -10.5632
    8   -8.0327
    9   -8.0293
   10   -8.0293
   11   -1.6360
   12   -1.1691
   13   -1.1011
   14   -1.0018
   15   -0.8480
   16   -0.8008
   17   -0.7371
   18   -0.7084
   19   -0.6955
   20   -0.6363
   21   -0.6123
   22   -0.5621
   23   -0.5349
   24   -0.5208
   25   -0.4552
   26   -0.4433
   27   -0.3285
   28    0.1187
   29    0.2100
   30    0.2367
   31    0.2381
   32    0.2817
   33    0.2932
   34    0.3114
   35    0.3718
   36    0.4601
   37    0.4967

                       ROHF Final Molecular Orbital Analysis
                       -------------------------------------

 Vector   12  Occ=2.000000D+00  E=-1.169094D+00  Symmetry=a'
              MO Center=  7.6D-02,  1.6D+00,  3.1D-17, r^2= 2.1D+00
   Bfn.  Coefficient  Atom+Function         Bfn.  Coefficient  Atom+Function  
  ----- ------------  ---------------      ----- ------------  ---------------
    87      0.485910   9 Cl s                83     -0.250314   9 Cl s         
     2      0.233372   1 C  s                 6      0.186429   1 C  s         
    17      0.174584   2 C  s                91      0.175244   9 Cl s         

 Vector   13  Occ=2.000000D+00  E=-1.101063D+00  Symmetry=a'
              MO Center= -2.3D-02, -4.2D-01, -1.0D-17, r^2= 4.1D+00
   Bfn.  Coefficient  Atom+Function         Bfn.  Coefficient  Atom+Function  
  ----- ------------  ---------------      ----- ------------  ---------------
    87      0.336873   9 Cl s                32     -0.269144   3 C  s         
    47     -0.204487   4 C  s                36     -0.192647   3 C  s         
    83     -0.171353   9 Cl s                17     -0.166982   2 C  s         

 Vector   14  Occ=2.000000D+00  E=-1.001789D+00  Symmetry=a'
              MO Center= -2.2D-02, -3.8D-02, -4.5D-18, r^2= 4.5D+00
   Bfn.  Coefficient  Atom+Function         Bfn.  Coefficient  Atom+Function  
  ----- ------------  ---------------      ----- ------------  ---------------
    87      0.334707   9 Cl s                17     -0.219007   2 C  s         
    47      0.218270   4 C  s                 2     -0.176217   1 C  s         
    91      0.169480   9 Cl s                83     -0.167323   9 Cl s         
     6     -0.160492   1 C  s                 4      0.152620   1 C  py        
    34     -0.150486   3 C  py        

 Vector   15  Occ=2.000000D+00  E=-8.480039D-01  Symmetry=a'
              MO Center= -4.6D-02, -1.8D+00, -2.1D-17, r^2= 4.6D+00
   Bfn.  Coefficient  Atom+Function         Bfn.  Coefficient  Atom+Function  
[...]

 Vector   29  Occ=0.000000D+00  E= 2.079271D-01  Symmetry=a'
              MO Center= -1.8D-02,  2.0D+00, -3.7D-15, r^2= 3.7D+00
   Bfn.  Coefficient  Atom+Function         Bfn.  Coefficient  Atom+Function  
  ----- ------------  ---------------      ----- ------------  ---------------
     6      1.362557   1 C  s                93      0.995698   9 Cl py        
    91     -0.862869   9 Cl s                 8      0.846348   1 C  py        
    77     -0.634717   6 H  s                21      0.600310   2 C  s         
    92     -0.451481   9 Cl px              102     -0.447929  10 H  s         
     4      0.315210   1 C  py               89      0.289834   9 Cl py        

 Vector   30  Occ=0.000000D+00  E= 2.365870D-01  Symmetry=a'
              MO Center=  3.4D-01, -4.8D-01,  9.7D-15, r^2= 6.5D+00
   Bfn.  Coefficient  Atom+Function         Bfn.  Coefficient  Atom+Function  
  ----- ------------  ---------------      ----- ------------  ---------------
   102      1.216010  10 H  s                79      1.050919   7 H  s         
    81     -0.981525   8 H  s                77     -0.873512   6 H  s         
    51      0.754561   4 C  s                 6     -0.695580   1 C  s         
     7     -0.652333   1 C  px               36     -0.588185   3 C  s         
    22     -0.456363   2 C  px               37     -0.426541   3 C  px        

 Vector   31  Occ=0.000000D+00  E= 2.368842D-01  Symmetry=a"
              MO Center=  2.7D-03, -7.3D-01,  9.9D-15, r^2= 3.6D+00
   Bfn.  Coefficient  Atom+Function         Bfn.  Coefficient  Atom+Function  
  ----- ------------  ---------------      ----- ------------  ---------------
    39     -0.827984   3 C  pz               24      0.774768   2 C  pz        
    54      0.617877   4 C  pz                9     -0.546492   1 C  pz        
    35     -0.315245   3 C  pz               20      0.280750   2 C  pz        
    50      0.232626   4 C  pz                5     -0.158285   1 C  pz        
    94      0.152224   9 Cl pz        

 Vector   32  Occ=0.000000D+00  E= 2.808727D-01  Symmetry=a'
              MO Center= -4.2D-01, -1.3D+00,  6.2D-16, r^2= 5.7D+00
   Bfn.  Coefficient  Atom+Function         Bfn.  Coefficient  Atom+Function  
  ----- ------------  ---------------      ----- ------------  ---------------
    36      1.434586   3 C  s                79     -1.331796   7 H  s         
    21      1.285725   2 C  s                81     -1.282014   8 H  s         
    77     -0.955027   6 H  s                51      0.927864   4 C  s         
    52     -0.769141   4 C  px               37      0.734141   3 C  px        
     7      0.708343   1 C  px                6     -0.664306   1 C  s         

 Vector   33  Occ=0.000000D+00  E= 2.942869D-01  Symmetry=a'
              MO Center= -3.1D-01, -8.7D-01, -5.0D-15, r^2= 7.4D+00
   Bfn.  Coefficient  Atom+Function         Bfn.  Coefficient  Atom+Function  
  ----- ------------  ---------------      ----- ------------  ---------------
    81      1.543482   8 H  s                51     -1.319115   4 C  s         
   102      1.304235  10 H  s                 6     -1.009809   1 C  s         
    36      0.794984   3 C  s                52      0.730258   4 C  px        
    77     -0.715135   6 H  s                53     -0.599524   4 C  py        
     7     -0.596334   1 C  px               21      0.530000   2 C  s         

 Vector   34  Occ=0.000000D+00  E= 3.103292D-01  Symmetry=a'
              MO Center=  3.0D-01, -4.6D-02,  1.4D-14, r^2= 6.2D+00
   Bfn.  Coefficient  Atom+Function         Bfn.  Coefficient  Atom+Function  
  ----- ------------  ---------------      ----- ------------  ---------------
   102     -1.218592  10 H  s                77     -1.209861   6 H  s         
    21      1.139125   2 C  s                79      1.123237   7 H  s         
    36     -0.853691   3 C  s                 7      0.805468   1 C  px        
     6      0.705979   1 C  s                22     -0.624406   2 C  px        
    37     -0.590558   3 C  px               51     -0.581972   4 C  s         

 Vector   35  Occ=0.000000D+00  E= 3.705700D-01  Symmetry=a'
              MO Center= -2.3D-01, -1.4D+00,  1.2D-16, r^2= 6.3D+00
   Bfn.  Coefficient  Atom+Function         Bfn.  Coefficient  Atom+Function  
  ----- ------------  ---------------      ----- ------------  ---------------
    37     -1.593375   3 C  px               22      1.505389   2 C  px        
    53     -1.457235   4 C  py               77      1.453579   6 H  s         
    79      1.399336   7 H  s                 6     -0.992270   1 C  s         
    66     -0.964058   5 F  s                 8      0.875782   1 C  py        
    23      0.687010   2 C  py               68     -0.383478   5 F  py        

 Vector   36  Occ=0.000000D+00  E= 4.593288D-01  Symmetry=a'
              MO Center= -2.0D-01,  4.9D-01, -8.5D-15, r^2= 6.0D+00
   Bfn.  Coefficient  Atom+Function         Bfn.  Coefficient  Atom+Function  
  ----- ------------  ---------------      ----- ------------  ---------------
    23      3.029301   2 C  py               36      2.687525   3 C  s         
     6     -2.389004   1 C  s                 7      2.068730   1 C  px        
    51     -1.958538   4 C  s                37     -1.927899   3 C  px        
   102     -1.264562  10 H  s                91      1.198241   9 Cl s         
    79      1.031507   7 H  s                21      0.881205   2 C  s         

 Vector   37  Occ=0.000000D+00  E= 4.967391D-01  Symmetry=a'
              MO Center=  4.8D-01,  2.4D-01, -2.2D-15, r^2= 5.7D+00
   Bfn.  Coefficient  Atom+Function         Bfn.  Coefficient  Atom+Function  
  ----- ------------  ---------------      ----- ------------  ---------------
    21      4.587071   2 C  s                38     -2.904262   3 C  py        
     6     -2.651276   1 C  s                22      2.529158   2 C  px        
     8      2.355337   1 C  py               51     -1.374897   4 C  s         
    52     -1.365050   4 C  px               36     -1.290895   3 C  s         
    77      1.041706   6 H  s                66      0.895434   5 F  s         

 Vector   38  Occ=0.000000D+00  E= 5.584618D-01  Symmetry=a'
              MO Center= -1.6D-01, -8.9D-02, -1.5D-14, r^2= 6.8D+00
   Bfn.  Coefficient  Atom+Function         Bfn.  Coefficient  Atom+Function  
  ----- ------------  ---------------      ----- ------------  ---------------
    36      2.621657   3 C  s                51     -2.589145   4 C  s         
    38     -2.367647   3 C  py               53     -1.707606   4 C  py        
    52     -1.642971   4 C  px               21     -1.192366   2 C  s         
    23     -1.091387   2 C  py               37     -1.080562   3 C  px        
     7     -0.959601   1 C  px               81     -0.857278   8 H  s         


 center of mass
 --------------
 x =  -0.01264536 y =   0.03306181 z =   0.00000000

 moments of inertia (a.u.)
 ------------------
        2215.807964219021           6.651805337074           0.000000000000
           6.651805337074          59.483321428189           0.000000000000
           0.000000000000           0.000000000000        2275.291285647210

  Mulliken analysis of the total density
  --------------------------------------

    Atom       Charge   Shell Charges
 -----------   ------   -------------------------------------------------------
    1 C    6     6.32   2.00  0.66  1.94  0.59  1.06  0.08
    2 C    6     6.12   2.00  0.67  2.00  0.47  0.92  0.06
    3 C    6     6.27   2.00  0.66  2.03  0.51  1.01  0.06
    4 C    6     5.77   2.00  0.67  1.88  0.43  0.70  0.09
    5 F    9     9.36   2.00  0.98  3.30  0.86  2.11  0.12
    6 H    1     0.78   0.53  0.25
    7 H    1     0.78   0.52  0.26
    8 H    1     0.80   0.53  0.27
    9 Cl  17    17.03   2.00  2.00  5.98  1.35  3.57  0.58  1.51  0.05
   10 H    1     0.77   0.52  0.24

       Multipole analysis of the density wrt the origin
       ------------------------------------------------

     L   x y z        total         open         nuclear
     -   - - -        -----         ----         -------
     0   0 0 0     -0.000000      0.000000     54.000000

     1   1 0 0     -0.096872      0.000000     -0.470286
     1   0 1 0     -0.255336      0.000000      0.367106
     1   0 0 1      0.000000      0.000000      0.000000

     2   2 0 0    -26.984888      0.000000     44.628773
     2   1 1 0      2.278709      0.000000      3.551581
     2   1 0 1     -0.000000      0.000000      0.000000
     2   0 2 0    -38.028908      0.000000   1087.576757
     2   0 1 1      0.000000      0.000000      0.000000
     2   0 0 2    -32.447947      0.000000      0.000000


 Parallel integral file used     109 records with       0 large values

 Line search: 
     step= 1.00 grad=-2.2D-04 hess= 1.0D-04 energy=   -712.668496 mode=accept  
 new step= 1.00                   predicted energy=   -712.668496

          --------
          Step   2
          --------


                         Geometry "geometry" -> "geometry"
                         ---------------------------------

 Output coordinates in angstroms (scale by  1.889725989 to convert to a.u.)

  No.       Tag          Charge          X              Y              Z
 ---- ---------------- ---------- -------------- -------------- --------------
    1 C                    6.0000     0.51748728     1.19910087     0.00000000
    2 C                    6.0000    -0.23367880     0.11615920     0.00000000
    3 C                    6.0000     0.32468937    -1.23577700     0.00000000
    4 C                    6.0000    -0.43190736    -2.31170931     0.00000000
    5 F                    9.0000     0.09112954    -3.53160931     0.00000000
    6 H                    1.0000    -1.30439802     0.21852774     0.00000000
    7 H                    1.0000     1.39241630    -1.35949996     0.00000000
    8 H                    1.0000    -1.50375421    -2.33124559     0.00000000
    9 Cl                  17.0000    -0.13537226     2.80385139     0.00000000
   10 H                    1.0000     1.58849097     1.17884983     0.00000000

      Atomic Mass 
      ----------- 

      C                 12.000000
      F                 18.998400
      H                  1.007825
      Cl                34.968850


 Effective nuclear repulsion energy (a.u.)     243.5589405685

            Nuclear Dipole moment (a.u.) 
            ----------------------------
        X                 Y               Z
 ---------------- ---------------- ----------------
    -0.4702858011     0.3671064553     0.0000000000

      Symmetry information
      --------------------

 Group name             Cs        
 Group number              2
 Group order               2
 No. of unique centers    10

      Symmetry unique atoms

     1    2    3    4    5    6    7    8    9   10

                                 NWChem SCF Module
                                 -----------------


                                       mol2



  ao basis        = "ao basis"
  functions       =   102
  atoms           =    10
  closed shells   =    27
  open shells     =     0
  charge          =   0.00
  wavefunction    = RHF 
  input vectors   = ./molecule.movecs
  output vectors  = ./molecule.movecs
  use symmetry    = T
  symmetry adapt  = T


 Summary of "ao basis" -> "ao basis" (cartesian)
 ------------------------------------------------------------------------------
       Tag                 Description            Shells   Functions and Types
 ---------------- ------------------------------  ------  ---------------------
 C                           6-31G*                  6       15   3s2p1d
 F                           6-31G*                  6       15   3s2p1d
 H                           6-31G*                  2        2   2s
 Cl                          6-31G*                  8       19   4s3p1d


      Symmetry analysis of basis
      --------------------------

        a'         77
        a"         25


  The SCF is already converged 

         Total SCF energy =   -712.668495737583

                              NWChem Gradients Module
                              -----------------------


                                       mol2


  wavefunction    =   RHF     

  Using symmetry


                         RHF ENERGY GRADIENTS

    atom               coordinates                        gradient
                 x          y          z           x          y          z
   1 C       0.977909   2.265972   0.000000   -0.000668   0.000786   0.000000
   2 C      -0.441589   0.219509   0.000000    0.000678  -0.000510   0.000000
   3 C       0.613574  -2.335280   0.000000   -0.000065   0.000999   0.000000
   4 C      -0.816187  -4.368497   0.000000   -0.000283   0.000943   0.000000
   5 F       0.172210  -6.673774   0.000000    0.000241  -0.001177   0.000000
   6 H      -2.464955   0.412958   0.000000    0.000523   0.000440   0.000000
   7 H       2.631285  -2.569082   0.000000   -0.000580  -0.000473   0.000000
   8 H      -2.841683  -4.405415   0.000000    0.000345  -0.000461   0.000000
   9 Cl     -0.255816   5.298511   0.000000    0.000242  -0.000290   0.000000
  10 H       3.001813   2.227703   0.000000   -0.000433  -0.000257   0.000000

                 ----------------------------------------
                 |  Time  |  1-e(secs)   |  2-e(secs)   |
                 ----------------------------------------
                 |  CPU   |       0.02   |       5.33   |
                 ----------------------------------------
                 |  WALL  |       0.01   |       6.35   |
                 ----------------------------------------

  Step       Energy      Delta E   Gmax     Grms     Xrms     Xmax   Walltime
  ---- ---------------- -------- -------- -------- -------- -------- --------
@    2    -712.66849574 -1.1D-04  0.00118  0.00033  0.00771  0.02402     27.4
                                                                    



                                Z-matrix (autoz)
                                -------- 

 Units are Angstrom for bonds and degrees for angles

      Type          Name      I     J     K     L     M      Value     Gradient
      ----------- --------  ----- ----- ----- ----- ----- ---------- ----------
    1 Stretch                  1     2                       1.31796   -0.00029
    2 Stretch                  1     9                       1.73247   -0.00036
    3 Stretch                  1    10                       1.07120   -0.00043
    4 Stretch                  2     3                       1.46271    0.00003
    5 Stretch                  2     6                       1.07560   -0.00048
    6 Stretch                  3     4                       1.31532    0.00039
    7 Stretch                  3     7                       1.07487   -0.00052
    8 Stretch                  4     5                       1.32730    0.00118
    9 Stretch                  4     8                       1.07202   -0.00034
   10 Bend                     1     2     3               122.81218    0.00024
   11 Bend                     1     2     6               119.28523   -0.00038
   12 Bend                     2     1     9               123.11554    0.00023
   13 Bend                     2     1    10               123.66328   -0.00026
   14 Bend                     2     3     4               122.44378    0.00050
   15 Bend                     2     3     7               119.05097    0.00004
   16 Bend                     3     2     6               117.90259    0.00014
   17 Bend                     3     4     5               121.67765    0.00005
   18 Bend                     3     4     8               126.15913    0.00023
   19 Bend                     4     3     7               118.50525   -0.00054
   20 Bend                     5     4     8               112.16322   -0.00027
   21 Bend                     9     1    10               113.22118    0.00003
   22 Torsion                  1     2     3     4         180.00000    0.00000
   23 Torsion                  1     2     3     7           0.00000    0.00000
   24 Torsion                  2     3     4     5         180.00000    0.00000
   25 Torsion                  2     3     4     8           0.00000    0.00000
   26 Torsion                  3     2     1     9         180.00000    0.00000
   27 Torsion                  3     2     1    10           0.00000    0.00000
   28 Torsion                  4     3     2     6           0.00000    0.00000
   29 Torsion                  5     4     3     7           0.00000    0.00000
   30 Torsion                  6     2     1     9           0.00000    0.00000
   31 Torsion                  6     2     1    10         180.00000    0.00000
   32 Torsion                  6     2     3     7         180.00000    0.00000
   33 Torsion                  7     3     4     8         180.00000    0.00000

                                 NWChem SCF Module
                                 -----------------


                                       mol2



  ao basis        = "ao basis"
  functions       =   102
  atoms           =    10
  closed shells   =    27
  open shells     =     0
  charge          =   0.00
  wavefunction    = RHF 
  input vectors   = ./molecule.movecs
  output vectors  = ./molecule.movecs
  use symmetry    = T
  symmetry adapt  = T


 Summary of "ao basis" -> "ao basis" (cartesian)
 ------------------------------------------------------------------------------
       Tag                 Description            Shells   Functions and Types
 ---------------- ------------------------------  ------  ---------------------
 C                           6-31G*                  6       15   3s2p1d
 F                           6-31G*                  6       15   3s2p1d
 H                           6-31G*                  2        2   2s
 Cl                          6-31G*                  8       19   4s3p1d


      Symmetry analysis of basis
      --------------------------

        a'         77
        a"         25


 Forming initial guess at      27.5s


 Loading old vectors from job with title :

mol3


      Symmetry analysis of molecular orbitals - initial
      -------------------------------------------------


 !! scf_movecs_sym_adapt:  100 vectors were symmetry contaminated

  Symmetry fudging

 !! scf_movecs_sym_adapt:   91 vectors were symmetry contaminated

 ------------------------------------------------------------------------
 ga_orthog: failed to orthog vector                 100
 ------------------------------------------------------------------------
 ------------------------------------------------------------------------
  current input line : 
    25: task scf optimize
 ------------------------------------------------------------------------
 ------------------------------------------------------------------------
 ------------------------------------------------------------------------
 For more information see the NWChem manual at http://www.nwchem-sw.org/index.php/NWChem_Documentation


 For further details see manual section:                                                                                                                                                                                                                                                                
--------------------------------------------------------------------------
MPI_ABORT was invoked on rank 0 in communicator MPI COMMUNICATOR 4 DUP FROM 0 
with errorcode 100.

NOTE: invoking MPI_ABORT causes Open MPI to kill all MPI processes.
You may or may not see output from other processes, depending on
exactly when Open MPI kills them.
--------------------------------------------------------------------------
0:0:ga_orthog: failed to orthog vector:: 100
(rank:0 hostname:evandell pid:26087):ARMCI DASSERT fail. ../../ga-5-4/armci/src/common/armci.c:ARMCI_Error():208 cond:0
