 argument  1 = mol2.nw



============================== echo of input deck ==============================
echo

start molecule

title "mol2"
charge 0

geometry units angstroms print xyz autosym
   C       -0.54968        2.90882       -0.11840
   C        0.42913        2.00236       -0.03217
   C        1.84347        2.25767       -0.17858
   C        2.77002        1.30379       -0.07680
   F        4.07828        1.58454       -0.22007
   H        0.13952        0.97176        0.16720
   H        2.17571        3.27246       -0.38138
   H        2.61755        0.25260        0.11980
  Cl       -0.35184        4.58308       -0.42184
   H       -1.59526        2.65161        0.00167
end

basis
  * library 6-31G*
end

task scf optimize
================================================================================


                                         
                                         


              Northwest Computational Chemistry Package (NWChem) 6.6
              ------------------------------------------------------


                    Environmental Molecular Sciences Laboratory
                       Pacific Northwest National Laboratory
                                Richland, WA 99352

                              Copyright (c) 1994-2015
                       Pacific Northwest National Laboratory
                            Battelle Memorial Institute

             NWChem is an open-source computational chemistry package
                        distributed under the terms of the
                      Educational Community License (ECL) 2.0
             A copy of the license is included with this distribution
                              in the LICENSE.TXT file

                                  ACKNOWLEDGMENT
                                  --------------

            This software and its documentation were developed at the
            EMSL at Pacific Northwest National Laboratory, a multiprogram
            national laboratory, operated for the U.S. Department of Energy
            by Battelle under Contract Number DE-AC05-76RL01830. Support
            for this work was provided by the Department of Energy Office
            of Biological and Environmental Research, Office of Basic
            Energy Sciences, and the Office of Advanced Scientific Computing.


           Job information
           ---------------

    hostname        = evandell
    program         = nwchem
    date            = Thu Dec  1 15:01:29 2016

    compiled        = Mon_Feb_15_08:24:17_2016
    source          = /build/nwchem-MF0R1k/nwchem-6.6+r27746
    nwchem branch   = 6.6
    nwchem revision = 27746
    ga revision     = 10594
    input           = mol2.nw
    prefix          = molecule.
    data base       = ./molecule.db
    status          = startup
    nproc           =        1
    time left       =     -1s



           Memory information
           ------------------

    heap     =   13107196 doubles =    100.0 Mbytes
    stack    =   13107201 doubles =    100.0 Mbytes
    global   =   26214400 doubles =    200.0 Mbytes (distinct from heap & stack)
    total    =   52428797 doubles =    400.0 Mbytes
    verify   = yes
    hardfail = no 


           Directory information
           ---------------------

  0 permanent = .
  0 scratch   = .




                                NWChem Input Module
                                -------------------


                                       mol2
                                       ----

 Scaling coordinates for geometry "geometry" by  1.889725989
 (inverse scale =  0.529177249)

 C1  symmetry detected

          ------
          auto-z
          ------


                             Geometry "geometry" -> ""
                             -------------------------

 Output coordinates in angstroms (scale by  1.889725989 to convert to a.u.)

  No.       Tag          Charge          X              Y              Z
 ---- ---------------- ---------- -------------- -------------- --------------
    1 C                    6.0000    -0.86546933     1.44851277    -0.00000117
    2 C                    6.0000    -1.05602224     0.12531075    -0.00060672
    3 C                    6.0000    -0.02358157    -0.88515535    -0.00172582
    4 C                    6.0000    -0.28466405    -2.19304235     0.00121765
    5 F                    9.0000     0.70761989    -3.10203207     0.00005726
    6 H                    1.0000    -2.08490094    -0.23129435    -0.00023750
    7 H                    1.0000     1.01733003    -0.57242343    -0.00515953
    8 H                    1.0000    -1.25196574    -2.67388766     0.00499895
    9 Cl                  17.0000     0.64795936     2.25094439     0.00033906
   10 H                    1.0000    -1.68592833     2.15608447     0.00081510

      Atomic Mass 
      ----------- 

      C                 12.000000
      F                 18.998400
      H                  1.007825
      Cl                34.968850


 Effective nuclear repulsion energy (a.u.)     249.6177823279

            Nuclear Dipole moment (a.u.) 
            ----------------------------
        X                 Y               Z
 ---------------- ---------------- ----------------
     0.0000000000    -0.0000000000     0.0000000000



                                Z-matrix (autoz)
                                -------- 

 Units are Angstrom for bonds and degrees for angles

      Type          Name      I     J     K     L     M      Value
      ----------- --------  ----- ----- ----- ----- ----- ----------
    1 Stretch                  1     2                       1.33685
    2 Stretch                  1     9                       1.71300
    3 Stretch                  1    10                       1.08343
    4 Stretch                  2     3                       1.44464
    5 Stretch                  2     6                       1.08893
    6 Stretch                  3     4                       1.33369
    7 Stretch                  3     7                       1.08688
    8 Stretch                  4     5                       1.34569
    9 Stretch                  4     8                       1.08023
   10 Bend                     1     2     3               126.18896
   11 Bend                     1     2     6               117.31085
   12 Bend                     2     1     9               126.12765
   13 Bend                     2     1    10               122.58004
   14 Bend                     2     3     4               123.09442
   15 Bend                     2     3     7               118.89388
   16 Bend                     3     2     6               116.50018
   17 Bend                     3     4     5               121.20219
   18 Bend                     3     4     8               127.72122
   19 Bend                     4     3     7               118.01170
   20 Bend                     5     4     8               111.07659
   21 Bend                     9     1    10               111.29230
   22 Torsion                  1     2     3     4         179.82045
   23 Torsion                  1     2     3     7          -0.18194
   24 Torsion                  2     3     4     5        -179.99896
   25 Torsion                  2     3     4     8          -0.02035
   26 Torsion                  3     2     1     9          -0.03115
   27 Torsion                  3     2     1    10         179.99864
   28 Torsion                  4     3     2     6          -0.18029
   29 Torsion                  5     4     3     7           0.00341
   30 Torsion                  6     2     1     9         179.96959
   31 Torsion                  6     2     1    10          -0.00062
   32 Torsion                  6     2     3     7         179.81733
   33 Torsion                  7     3     4     8         179.98201


            XYZ format geometry
            -------------------
    10
 geometry
 C                    -0.86546933     1.44851277    -0.00000117
 C                    -1.05602224     0.12531075    -0.00060672
 C                    -0.02358157    -0.88515535    -0.00172582
 C                    -0.28466405    -2.19304235     0.00121765
 F                     0.70761989    -3.10203207     0.00005726
 H                    -2.08490094    -0.23129435    -0.00023750
 H                     1.01733003    -0.57242343    -0.00515953
 H                    -1.25196574    -2.67388766     0.00499895
 Cl                    0.64795936     2.25094439     0.00033906
 H                    -1.68592833     2.15608447     0.00081510

 ==============================================================================
                                internuclear distances
 ------------------------------------------------------------------------------
       center one      |      center two      | atomic units |  angstroms
 ------------------------------------------------------------------------------
    2 C                |   1 C                |     2.52628  |     1.33685
    3 C                |   2 C                |     2.72997  |     1.44464
    4 C                |   3 C                |     2.52032  |     1.33369
    5 F                |   4 C                |     2.54299  |     1.34569
    6 H                |   2 C                |     2.05777  |     1.08893
    7 H                |   3 C                |     2.05391  |     1.08688
    8 H                |   4 C                |     2.04134  |     1.08023
    9 Cl               |   1 C                |     3.23710  |     1.71300
   10 H                |   1 C                |     2.04738  |     1.08343
 ------------------------------------------------------------------------------
                         number of included internuclear distances:          9
 ==============================================================================



 ==============================================================================
                                 internuclear angles
 ------------------------------------------------------------------------------
        center 1       |       center 2       |       center 3       |  degrees
 ------------------------------------------------------------------------------
    2 C                |   1 C                |   9 Cl               |   126.13
    2 C                |   1 C                |  10 H                |   122.58
    9 Cl               |   1 C                |  10 H                |   111.29
    1 C                |   2 C                |   3 C                |   126.19
    1 C                |   2 C                |   6 H                |   117.31
    3 C                |   2 C                |   6 H                |   116.50
    2 C                |   3 C                |   4 C                |   123.09
    2 C                |   3 C                |   7 H                |   118.89
    4 C                |   3 C                |   7 H                |   118.01
    3 C                |   4 C                |   5 F                |   121.20
    3 C                |   4 C                |   8 H                |   127.72
    5 F                |   4 C                |   8 H                |   111.08
 ------------------------------------------------------------------------------
                            number of included internuclear angles:         12
 ==============================================================================





 Summary of "ao basis" -> "" (cartesian)
 ------------------------------------------------------------------------------
       Tag                 Description            Shells   Functions and Types
 ---------------- ------------------------------  ------  ---------------------
 *                           6-31G*                   on all atoms 




                           NWChem Geometry Optimization
                           ----------------------------




                                       mol2


 maximum gradient threshold         (gmax) =   0.000450
 rms gradient threshold             (grms) =   0.000300
 maximum cartesian step threshold   (xmax) =   0.001800
 rms cartesian step threshold       (xrms) =   0.001200
 fixed trust radius                (trust) =   0.300000
 maximum step size to saddle      (sadstp) =   0.100000
 energy precision                  (eprec) =   1.0D-07
 maximum number of steps          (nptopt) =   20
 initial hessian option           (inhess) =    0
 line search option               (linopt) =    1
 hessian update option            (modupd) =    1
 saddle point option              (modsad) =    0
 initial eigen-mode to follow     (moddir) =    0
 initial variable to follow       (vardir) =    0
 follow first negative mode     (firstneg) =    T
 apply conjugacy                    (opcg) =    F
 source of zmatrix                         =   autoz   


          -------------------
          Energy Minimization
          -------------------


 Names of Z-matrix variables 
    1              2              3              4              5         
    6              7              8              9             10         
   11             12             13             14             15         
   16             17             18             19             20         
   21             22             23             24             25         
   26             27             28             29             30         
   31             32             33         

 Variables with the same non-blank name are constrained to be equal


 Using old Hessian from previous optimization

          --------
          Step   0
          --------


                         Geometry "geometry" -> "geometry"
                         ---------------------------------

 Output coordinates in angstroms (scale by  1.889725989 to convert to a.u.)

  No.       Tag          Charge          X              Y              Z
 ---- ---------------- ---------- -------------- -------------- --------------
    1 C                    6.0000    -0.86546933     1.44851277    -0.00000117
    2 C                    6.0000    -1.05602224     0.12531075    -0.00060672
    3 C                    6.0000    -0.02358157    -0.88515535    -0.00172582
    4 C                    6.0000    -0.28466405    -2.19304235     0.00121765
    5 F                    9.0000     0.70761989    -3.10203207     0.00005726
    6 H                    1.0000    -2.08490094    -0.23129435    -0.00023750
    7 H                    1.0000     1.01733003    -0.57242343    -0.00515953
    8 H                    1.0000    -1.25196574    -2.67388766     0.00499895
    9 Cl                  17.0000     0.64795936     2.25094439     0.00033906
   10 H                    1.0000    -1.68592833     2.15608447     0.00081510

      Atomic Mass 
      ----------- 

      C                 12.000000
      F                 18.998400
      H                  1.007825
      Cl                34.968850


 Effective nuclear repulsion energy (a.u.)     249.6177823279

            Nuclear Dipole moment (a.u.) 
            ----------------------------
        X                 Y               Z
 ---------------- ---------------- ----------------
     0.0000000000    -0.0000000000     0.0000000000

                      Basis "ao basis" -> "ao basis" (cartesian)
                      -----
  C (Carbon)
  ----------
            Exponent  Coefficients 
       -------------- ---------------------------------------------------------
  1 S  3.04752490E+03  0.001835
  1 S  4.57369510E+02  0.014037
  1 S  1.03948690E+02  0.068843
  1 S  2.92101550E+01  0.232184
  1 S  9.28666300E+00  0.467941
  1 S  3.16392700E+00  0.362312

  2 S  7.86827240E+00 -0.119332
  2 S  1.88128850E+00 -0.160854
  2 S  5.44249300E-01  1.143456

  3 P  7.86827240E+00  0.068999
  3 P  1.88128850E+00  0.316424
  3 P  5.44249300E-01  0.744308

  4 S  1.68714400E-01  1.000000

  5 P  1.68714400E-01  1.000000

  6 D  8.00000000E-01  1.000000

  F (Fluorine)
  ------------
            Exponent  Coefficients 
       -------------- ---------------------------------------------------------
  1 S  7.00171309E+03  0.001820
  1 S  1.05136609E+03  0.013916
  1 S  2.39285690E+02  0.068405
  1 S  6.73974453E+01  0.233186
  1 S  2.15199573E+01  0.471267
  1 S  7.40310130E+00  0.356619

  2 S  2.08479528E+01 -0.108507
  2 S  4.80830834E+00 -0.146452
  2 S  1.34406986E+00  1.128689

  3 P  2.08479528E+01  0.071629
  3 P  4.80830834E+00  0.345912
  3 P  1.34406986E+00  0.722470

  4 S  3.58151393E-01  1.000000

  5 P  3.58151393E-01  1.000000

  6 D  8.00000000E-01  1.000000

  H (Hydrogen)
  ------------
            Exponent  Coefficients 
       -------------- ---------------------------------------------------------
  1 S  1.87311370E+01  0.033495
  1 S  2.82539370E+00  0.234727
  1 S  6.40121700E-01  0.813757

  2 S  1.61277800E-01  1.000000

  Cl (Chlorine)
  -------------
            Exponent  Coefficients 
       -------------- ---------------------------------------------------------
  1 S  2.51801000E+04  0.001833
  1 S  3.78035000E+03  0.014034
  1 S  8.60474000E+02  0.069097
  1 S  2.42145000E+02  0.237452
  1 S  7.73349000E+01  0.483034
  1 S  2.62470000E+01  0.339856

  2 S  4.91765000E+02 -0.002297
  2 S  1.16984000E+02 -0.030714
  2 S  3.74153000E+01 -0.112528
  2 S  1.37834000E+01  0.045016
  2 S  5.45215000E+00  0.589353
  2 S  2.22588000E+00  0.465206

  3 P  4.91765000E+02  0.003989
  3 P  1.16984000E+02  0.030318
  3 P  3.74153000E+01  0.129880
  3 P  1.37834000E+01  0.327951
  3 P  5.45215000E+00  0.453527
  3 P  2.22588000E+00  0.252154

  4 S  3.18649000E+00 -0.251830
  4 S  1.14427000E+00  0.061589
  4 S  4.20377000E-01  1.060180

  5 P  3.18649000E+00 -0.014299
  5 P  1.14427000E+00  0.323572
  5 P  4.20377000E-01  0.743507

  6 S  1.42657000E-01  1.000000

  7 P  1.42657000E-01  1.000000

  8 D  7.50000000E-01  1.000000



 Summary of "ao basis" -> "ao basis" (cartesian)
 ------------------------------------------------------------------------------
       Tag                 Description            Shells   Functions and Types
 ---------------- ------------------------------  ------  ---------------------
 C                           6-31G*                  6       15   3s2p1d
 F                           6-31G*                  6       15   3s2p1d
 H                           6-31G*                  2        2   2s
 Cl                          6-31G*                  8       19   4s3p1d


                                 NWChem SCF Module
                                 -----------------


                                       mol2



  ao basis        = "ao basis"
  functions       =   102
  atoms           =    10
  closed shells   =    27
  open shells     =     0
  charge          =   0.00
  wavefunction    = RHF 
  input vectors   = atomic
  output vectors  = ./molecule.movecs
  use symmetry    = F
  symmetry adapt  = F


 Summary of "ao basis" -> "ao basis" (cartesian)
 ------------------------------------------------------------------------------
       Tag                 Description            Shells   Functions and Types
 ---------------- ------------------------------  ------  ---------------------
 C                           6-31G*                  6       15   3s2p1d
 F                           6-31G*                  6       15   3s2p1d
 H                           6-31G*                  2        2   2s
 Cl                          6-31G*                  8       19   4s3p1d



 Forming initial guess at       0.1s


      Superposition of Atomic Density Guess
      -------------------------------------

 Sum of atomic energies:        -711.45686149

      Non-variational initial energy
      ------------------------------

 Total energy =    -714.354083
 1-e energy   =   -1474.678171
 2-e energy   =     510.706306
 HOMO         =      -0.218336
 LUMO         =       0.009013


 Starting SCF solution at       0.7s



 ----------------------------------------------
         Quadratically convergent ROHF

 Convergence threshold     :          1.000E-04
 Maximum no. of iterations :           30
 Final Fock-matrix accuracy:          1.000E-07
 ----------------------------------------------


 Integral file          = ./molecule.aoints.0
 Record size in doubles =    65536    No. of integs per rec  =    43688
 Max. records in memory =        0    Max. records in file   =  1613236
 No. of bits per label  =        8    No. of bits per value  =       64


 #quartets = 4.392D+05 #integrals = 8.390D+06 #direct =  0.0% #cached =100.0%


              iter       energy          gnorm     gmax       time
             ----- ------------------- --------- --------- --------
                 1     -712.5841846646  1.01D+00  2.00D-01      2.3
                 2     -712.6527831004  4.71D-01  1.12D-01      2.4
                 3     -712.6634901456  2.03D-01  4.03D-02      2.5
                 4     -712.6662889543  1.35D-02  3.13D-03      2.7
                 5     -712.6663023590  1.35D-04  2.66D-05      3.1
                 6     -712.6663023613  5.49D-06  1.09D-06      3.5


       Final RHF  results 
       ------------------ 

         Total SCF energy =   -712.666302361337
      One-electron energy =  -1477.178659285405
      Two-electron energy =    514.894574596194
 Nuclear repulsion energy =    249.617782327873

        Time for solution =      2.9s


             Final eigenvalues
             -----------------

              1      
    1 -104.8320
    2  -26.3134
    3  -11.3390
    4  -11.3026
    5  -11.2679
    6  -11.2519
    7  -10.5662
    8   -8.0356
    9   -8.0322
   10   -8.0322
   11   -1.6232
   12   -1.1718
   13   -1.0938
   14   -0.9975
   15   -0.8534
   16   -0.7828
   17   -0.7233
   18   -0.7062
   19   -0.6862
   20   -0.6391
   21   -0.6083
   22   -0.5645
   23   -0.5301
   24   -0.5228
   25   -0.4551
   26   -0.4384
   27   -0.3252
   28    0.1093
   29    0.2157
   30    0.2357
   31    0.2452
   32    0.2731
   33    0.2915
   34    0.3127
   35    0.3709
   36    0.4835
   37    0.4983

                       ROHF Final Molecular Orbital Analysis
                       -------------------------------------

 Vector   12  Occ=2.000000D+00  E=-1.171848D+00
              MO Center= -8.2D-02,  1.5D+00,  2.9D-05, r^2= 1.9D+00
   Bfn.  Coefficient  Atom+Function         Bfn.  Coefficient  Atom+Function  
  ----- ------------  ---------------      ----- ------------  ---------------
    87      0.509691   9 Cl s                83     -0.262376   9 Cl s         
     2      0.226286   1 C  s                91      0.183270   9 Cl s         
     6      0.174206   1 C  s                17      0.158762   2 C  s         

 Vector   13  Occ=2.000000D+00  E=-1.093830D+00
              MO Center= -1.9D-01, -3.9D-01, -3.7D-04, r^2= 3.2D+00
   Bfn.  Coefficient  Atom+Function         Bfn.  Coefficient  Atom+Function  
  ----- ------------  ---------------      ----- ------------  ---------------
    87      0.323758   9 Cl s                32     -0.269158   3 C  s         
    47     -0.202838   4 C  s                17     -0.185649   2 C  s         
    36     -0.182338   3 C  s                83     -0.164207   9 Cl s         

 Vector   14  Occ=2.000000D+00  E=-9.975142D-01
              MO Center= -4.5D-01,  8.7D-03,  1.1D-06, r^2= 4.0D+00
   Bfn.  Coefficient  Atom+Function         Bfn.  Coefficient  Atom+Function  
  ----- ------------  ---------------      ----- ------------  ---------------
    87      0.308577   9 Cl s                17     -0.221020   2 C  s         
    47      0.214591   4 C  s                 2     -0.185504   1 C  s         
     6     -0.172490   1 C  s                91      0.165922   9 Cl s         
    21     -0.154455   2 C  s                83     -0.154282   9 Cl s         

 Vector   15  Occ=2.000000D+00  E=-8.533791D-01
              MO Center= -1.9D-01, -1.2D+00,  2.4D-04, r^2= 4.8D+00
   Bfn.  Coefficient  Atom+Function         Bfn.  Coefficient  Atom+Function  
  ----- ------------  ---------------      ----- ------------  ---------------
    63      0.259707   5 F  px               47     -0.209315   4 C  s         
    32      0.167651   3 C  s                 2     -0.165027   1 C  s         
    67      0.165300   5 F  px               51     -0.151797   4 C  s         

 Vector   16  Occ=2.000000D+00  E=-7.828422D-01
              MO Center= -4.0D-01, -6.2D-01,  1.1D-04, r^2= 5.1D+00
   Bfn.  Coefficient  Atom+Function         Bfn.  Coefficient  Atom+Function  
  ----- ------------  ---------------      ----- ------------  ---------------
     6      0.172813   1 C  s                48      0.171906   4 C  px        
    64      0.169902   5 F  py               63      0.167867   5 F  px        
    87     -0.166272   9 Cl s                33      0.163386   3 C  px        
    49      0.161201   4 C  py                2      0.157177   1 C  s         
    17     -0.151628   2 C  s         

 Vector   17  Occ=2.000000D+00  E=-7.233065D-01
              MO Center= -5.4D-02, -1.4D+00,  2.2D-04, r^2= 5.2D+00
   Bfn.  Coefficient  Atom+Function         Bfn.  Coefficient  Atom+Function  
  ----- ------------  ---------------      ----- ------------  ---------------
    64      0.321125   5 F  py               63     -0.243265   5 F  px        
    68      0.218495   5 F  py               48      0.217305   4 C  px        
     4     -0.191135   1 C  py               49     -0.184874   4 C  py        
    67     -0.165452   5 F  px        

 Vector   18  Occ=2.000000D+00  E=-7.061867D-01
              MO Center= -2.5D-01, -1.0D+00, -3.7D-04, r^2= 4.7D+00
   Bfn.  Coefficient  Atom+Function         Bfn.  Coefficient  Atom+Function  
  ----- ------------  ---------------      ----- ------------  ---------------
    64      0.310187   5 F  py               18     -0.245522   2 C  px        
    68      0.216298   5 F  py               63      0.188162   5 F  px        
    76      0.173101   6 H  s                34     -0.160391   3 C  py        
    36     -0.150871   3 C  s         

 Vector   19  Occ=2.000000D+00  E=-6.861943D-01
              MO Center=  6.0D-01, -3.0D+00,  1.5D-04, r^2= 6.8D-01
   Bfn.  Coefficient  Atom+Function         Bfn.  Coefficient  Atom+Function  
  ----- ------------  ---------------      ----- ------------  ---------------
    65      0.617741   5 F  pz               69      0.434034   5 F  pz        
    50      0.156776   4 C  pz        

 Vector   20  Occ=2.000000D+00  E=-6.390889D-01
              MO Center= -5.4D-01, -2.8D-01,  1.9D-05, r^2= 5.2D+00
   Bfn.  Coefficient  Atom+Function         Bfn.  Coefficient  Atom+Function  
  ----- ------------  ---------------      ----- ------------  ---------------
    63     -0.302968   5 F  px                4      0.288351   1 C  py        
    19     -0.251578   2 C  py               67     -0.216386   5 F  px        
   101      0.156193  10 H  s         

 Vector   21  Occ=2.000000D+00  E=-6.082643D-01
              MO Center=  6.7D-02,  1.1D-01, -7.1D-04, r^2= 4.7D+00
   Bfn.  Coefficient  Atom+Function         Bfn.  Coefficient  Atom+Function  
  ----- ------------  ---------------      ----- ------------  ---------------
    88      0.326688   9 Cl px               64     -0.255533   5 F  py        
    33      0.249493   3 C  px               19      0.240756   2 C  py        
     3     -0.193811   1 C  px               68     -0.187629   5 F  py        
     4     -0.174141   1 C  py               91      0.162781   9 Cl s         

 Vector   22  Occ=2.000000D+00  E=-5.644521D-01
              MO Center= -9.0D-02, -1.5D+00,  3.7D-04, r^2= 4.3D+00
   Bfn.  Coefficient  Atom+Function         Bfn.  Coefficient  Atom+Function  
  ----- ------------  ---------------      ----- ------------  ---------------
    63      0.268649   5 F  px               34      0.260520   3 C  py        
    49     -0.243516   4 C  py               64      0.229421   5 F  py        
    48     -0.212058   4 C  px               67      0.204159   5 F  px        
    80      0.198320   8 H  s                68      0.174848   5 F  py        
    81      0.168383   8 H  s         

 Vector   23  Occ=2.000000D+00  E=-5.300560D-01
              MO Center= -4.6D-01,  5.1D-01, -1.6D-04, r^2= 3.9D+00
   Bfn.  Coefficient  Atom+Function         Bfn.  Coefficient  Atom+Function  
  ----- ------------  ---------------      ----- ------------  ---------------
    18      0.292649   2 C  px               89      0.269799   9 Cl py        
    33     -0.253395   3 C  px               88      0.251445   9 Cl px        
    22      0.205801   2 C  px                3     -0.197994   1 C  px        
    76     -0.198171   6 H  s                77     -0.156541   6 H  s         
     7     -0.155514   1 C  px        

 Vector   24  Occ=2.000000D+00  E=-5.228354D-01
              MO Center=  3.8D-03,  1.5D+00, -4.0D-04, r^2= 2.6D+00
   Bfn.  Coefficient  Atom+Function         Bfn.  Coefficient  Atom+Function  
  ----- ------------  ---------------      ----- ------------  ---------------
    90      0.532575   9 Cl pz               94      0.266772   9 Cl pz        
     5      0.256198   1 C  pz               86     -0.206633   9 Cl pz        
    20      0.195645   2 C  pz                9      0.173903   1 C  pz        

 Vector   25  Occ=2.000000D+00  E=-4.551060D-01
              MO Center=  4.4D-01,  2.1D+00,  2.8D-04, r^2= 1.8D+00
   Bfn.  Coefficient  Atom+Function         Bfn.  Coefficient  Atom+Function  
  ----- ------------  ---------------      ----- ------------  ---------------
    89      0.585433   9 Cl py               88     -0.380083   9 Cl px        
    93      0.338242   9 Cl py               85     -0.224660   9 Cl py        
    92     -0.203490   9 Cl px        

 Vector   26  Occ=2.000000D+00  E=-4.383613D-01
              MO Center= -6.0D-02,  2.3D-02, -3.2D-04, r^2= 4.3D+00
   Bfn.  Coefficient  Atom+Function         Bfn.  Coefficient  Atom+Function  
  ----- ------------  ---------------      ----- ------------  ---------------
    90      0.409710   9 Cl pz               35     -0.297410   3 C  pz        
    94      0.238895   9 Cl pz               20     -0.229312   2 C  pz        
    50     -0.218911   4 C  pz               39     -0.211661   3 C  pz        
    24     -0.172386   2 C  pz               86     -0.156917   9 Cl pz        
    65      0.151058   5 F  pz        

 Vector   27  Occ=2.000000D+00  E=-3.252199D-01
              MO Center= -3.9D-01, -8.1D-02, -9.3D-05, r^2= 4.2D+00
   Bfn.  Coefficient  Atom+Function         Bfn.  Coefficient  Atom+Function  
  ----- ------------  ---------------      ----- ------------  ---------------
     5      0.302907   1 C  pz               50     -0.288089   4 C  pz        
     9      0.272036   1 C  pz               90     -0.270335   9 Cl pz        
    20      0.238954   2 C  pz               35     -0.231538   3 C  pz        
    39     -0.220027   3 C  pz               54     -0.219957   4 C  pz        
    24      0.211302   2 C  pz               94     -0.201333   9 Cl pz        

 Vector   28  Occ=0.000000D+00  E= 1.092715D-01
              MO Center= -5.6D-01, -3.0D-01, -1.7D-05, r^2= 4.1D+00
   Bfn.  Coefficient  Atom+Function         Bfn.  Coefficient  Atom+Function  
  ----- ------------  ---------------      ----- ------------  ---------------
     9      0.535755   1 C  pz               54      0.469933   4 C  pz        
    24     -0.403717   2 C  pz               50      0.337748   4 C  pz        
     5      0.320423   1 C  pz               39     -0.293704   3 C  pz        
    20     -0.245171   2 C  pz               35     -0.183198   3 C  pz        
    94     -0.174426   9 Cl pz        

 Vector   29  Occ=0.000000D+00  E= 2.156827D-01
              MO Center= -1.3D-01,  1.6D+00,  4.9D-04, r^2= 4.9D+00
   Bfn.  Coefficient  Atom+Function         Bfn.  Coefficient  Atom+Function  
  ----- ------------  ---------------      ----- ------------  ---------------
     6      1.520346   1 C  s                92      0.997715   9 Cl px        
    91     -0.875133   9 Cl s                77      0.619242   6 H  s         
     7      0.571074   1 C  px               93      0.518957   9 Cl py        
     8      0.485504   1 C  py               81      0.470263   8 H  s         
   102     -0.429819  10 H  s                36     -0.382761   3 C  s         

 Vector   30  Occ=0.000000D+00  E= 2.357324D-01
              MO Center= -1.7D+00,  5.3D-01,  5.0D-04, r^2= 5.5D+00
   Bfn.  Coefficient  Atom+Function         Bfn.  Coefficient  Atom+Function  
  ----- ------------  ---------------      ----- ------------  ---------------
   102     -1.316883  10 H  s                77     -1.301763   6 H  s         
    21      1.246517   2 C  s                 6      1.034818   1 C  s         
    81     -0.735162   8 H  s                 8      0.680485   1 C  py        
    22     -0.500065   2 C  px               79      0.406371   7 H  s         
    52     -0.383382   4 C  px               51      0.359909   4 C  s         

 Vector   31  Occ=0.000000D+00  E= 2.451534D-01
              MO Center= -5.0D-01, -5.0D-01, -4.9D-04, r^2= 3.6D+00
   Bfn.  Coefficient  Atom+Function         Bfn.  Coefficient  Atom+Function  
  ----- ------------  ---------------      ----- ------------  ---------------
    39     -0.817814   3 C  pz               24      0.775174   2 C  pz        
    54      0.593461   4 C  pz                9     -0.535108   1 C  pz        
    35     -0.325649   3 C  pz               20      0.292826   2 C  pz        
    50      0.224860   4 C  pz                5     -0.181999   1 C  pz        

 Vector   32  Occ=0.000000D+00  E= 2.731240D-01
              MO Center= -4.9D-01, -1.2D+00,  7.3D-04, r^2= 6.4D+00
   Bfn.  Coefficient  Atom+Function         Bfn.  Coefficient  Atom+Function  
  ----- ------------  ---------------      ----- ------------  ---------------
    81      1.398077   8 H  s                51     -1.161212   4 C  s         
    36      1.118693   3 C  s                79     -1.108958   7 H  s         
    52      0.728997   4 C  px              102     -0.677676  10 H  s         
    77     -0.468135   6 H  s                21      0.465413   2 C  s         
    37      0.361618   3 C  px                7     -0.352708   1 C  px        

 Vector   33  Occ=0.000000D+00  E= 2.914706D-01
              MO Center= -4.5D-01, -1.2D+00,  1.1D-03, r^2= 6.2D+00
   Bfn.  Coefficient  Atom+Function         Bfn.  Coefficient  Atom+Function  
  ----- ------------  ---------------      ----- ------------  ---------------
    81      1.377088   8 H  s                79      1.243734   7 H  s         
    36     -1.229832   3 C  s                51     -1.206340   4 C  s         
     7     -0.770212   1 C  px               37     -0.710209   3 C  px        
    53      0.710808   4 C  py              102     -0.709310  10 H  s         
    21     -0.542169   2 C  s                22      0.523590   2 C  px        

 Vector   34  Occ=0.000000D+00  E= 3.127379D-01
              MO Center= -8.6D-01, -1.7D-02, -6.7D-04, r^2= 7.3D+00
   Bfn.  Coefficient  Atom+Function         Bfn.  Coefficient  Atom+Function  
  ----- ------------  ---------------      ----- ------------  ---------------
   102      1.345843  10 H  s                79      1.160645   7 H  s         
    77     -1.136775   6 H  s                21      1.122581   2 C  s         
     7      0.984318   1 C  px                6     -0.795247   1 C  s         
    81      0.789720   8 H  s                52      0.736585   4 C  px        
    51     -0.723337   4 C  s                37     -0.708489   3 C  px        

 Vector   35  Occ=0.000000D+00  E= 3.708996D-01
              MO Center= -4.5D-01, -8.7D-01, -3.4D-04, r^2= 6.9D+00
   Bfn.  Coefficient  Atom+Function         Bfn.  Coefficient  Atom+Function  
  ----- ------------  ---------------      ----- ------------  ---------------
    77      1.513489   6 H  s                22      1.271550   2 C  px        
    79      1.252143   7 H  s                23      1.188547   2 C  py        
    37     -1.173397   3 C  px              102     -1.087169  10 H  s         
    53     -1.053111   4 C  py                8      0.982442   1 C  py        
    66     -0.844805   5 F  s                 6     -0.829257   1 C  s         

 Vector   36  Occ=0.000000D+00  E= 4.835073D-01
              MO Center= -4.2D-01, -6.8D-02, -1.4D-04, r^2= 6.0D+00
   Bfn.  Coefficient  Atom+Function         Bfn.  Coefficient  Atom+Function  
  ----- ------------  ---------------      ----- ------------  ---------------
    36      3.288862   3 C  s                23      2.701324   2 C  py        
    37     -2.440030   3 C  px               22     -1.878325   2 C  px        
    21     -1.651607   2 C  s                38      1.154008   3 C  py        
     6     -1.117247   1 C  s                 7      1.102503   1 C  px        
    52      0.887526   4 C  px               92      0.831850   9 Cl px        

 Vector   37  Occ=0.000000D+00  E= 4.982866D-01
              MO Center= -2.6D-01,  4.9D-01, -5.4D-04, r^2= 5.4D+00
   Bfn.  Coefficient  Atom+Function         Bfn.  Coefficient  Atom+Function  
  ----- ------------  ---------------      ----- ------------  ---------------
    21      2.683864   2 C  s                 8      1.956307   1 C  py        
     6     -1.935136   1 C  s                36     -1.831296   3 C  s         
    53      1.543074   4 C  py               51      1.353592   4 C  s         
    38      1.259150   3 C  py               23      1.137897   2 C  py        
    91      0.750018   9 Cl s               102     -0.636171  10 H  s         

 Vector   38  Occ=0.000000D+00  E= 5.313915D-01
              MO Center= -2.3D-01,  9.4D-01, -4.2D-04, r^2= 5.1D+00
   Bfn.  Coefficient  Atom+Function         Bfn.  Coefficient  Atom+Function  
  ----- ------------  ---------------      ----- ------------  ---------------
    21      3.473075   2 C  s                 6     -2.893612   1 C  s         
     8      2.731683   1 C  py               38     -2.401001   3 C  py        
    51     -2.348414   4 C  s                23      2.149747   2 C  py        
    22      1.326211   2 C  px               91     -1.147795   9 Cl s         
    36      1.059514   3 C  s                53     -1.018146   4 C  py        


------------------------------------------------------------
EAF file 0: "./molecule.aoints.0" size=101187584 bytes
------------------------------------------------------------
               write      read    awrite     aread      wait
               -----      ----    ------     -----      ----
     calls:      193        14         0      2688      2688
   data(b): 1.01e+08  7.34e+06  0.00e+00  1.41e+09
   time(s): 0.00e+00  0.00e+00  0.00e+00  0.00e+00  0.00e+00
rate(mb/s): 0.00e+00  0.00e+00
------------------------------------------------------------


 center of mass
 --------------
 x =   0.09463708 y =   0.00704091 z =  -0.00000050

 moments of inertia (a.u.)
 ------------------
        1659.644691760642           0.000000000001           0.000000000000
           0.000000000001         204.075124047188           0.000000000000
           0.000000000000           0.000000000000        1863.718996079721

  Mulliken analysis of the total density
  --------------------------------------

    Atom       Charge   Shell Charges
 -----------   ------   -------------------------------------------------------
    1 C    6     6.33   2.00  0.66  1.93  0.58  1.08  0.08
    2 C    6     6.13   2.00  0.67  1.99  0.47  0.94  0.06
    3 C    6     6.28   2.00  0.66  2.03  0.51  1.02  0.06
    4 C    6     5.76   2.00  0.67  1.86  0.44  0.71  0.09
    5 F    9     9.37   2.00  0.98  3.29  0.87  2.12  0.12
    6 H    1     0.79   0.52  0.27
    7 H    1     0.76   0.51  0.24
    8 H    1     0.80   0.53  0.27
    9 Cl  17    17.01   2.00  2.00  5.98  1.35  3.57  0.58  1.49  0.05
   10 H    1     0.76   0.52  0.24

       Multipole analysis of the density wrt the origin
       ------------------------------------------------

     L   x y z        total         open         nuclear
     -   - - -        -----         ----         -------
     0   0 0 0      0.000000      0.000000     54.000000

     1   1 0 0     -0.999407      0.000000      0.000000
     1   0 1 0     -0.075002      0.000000     -0.000000
     1   0 0 1      0.000725      0.000000      0.000000

     2   2 0 0    -27.686486      0.000000    118.239403
     2   1 1 0      1.618582      0.000000      0.738790
     2   1 0 1     -0.008612      0.000000     -0.022398
     2   0 2 0    -33.347745      0.000000    825.482547
     2   0 1 1     -0.006699      0.000000     -0.016241
     2   0 0 2    -32.557182      0.000000      0.000297


 Parallel integral file used     193 records with       0 large values

                              NWChem Gradients Module
                              -----------------------


                                       mol2


  wavefunction    =   RHF     



                         RHF ENERGY GRADIENTS

    atom               coordinates                        gradient
                 x          y          z           x          y          z
   1 C      -1.635500   2.737292  -0.000002    0.023465   0.014540  -0.000025
   2 C      -1.995593   0.236803  -0.001147    0.009841  -0.020652  -0.000020
   3 C      -0.044563  -1.672701  -0.003261   -0.015319   0.027230   0.000001
   4 C      -0.537937  -4.144249   0.002301   -0.011317  -0.006700   0.000025
   5 F       1.337208  -5.861991   0.000108    0.012259  -0.013076  -0.000005
   6 H      -3.939891  -0.437083  -0.000449   -0.007176  -0.006417  -0.000005
   7 H       1.922475  -1.081723  -0.009750    0.008940   0.003444  -0.000046
   8 H      -2.365872  -5.052915   0.009447   -0.004532  -0.005383   0.000040
   9 Cl      1.224466   4.253668   0.000641   -0.011268  -0.002020   0.000020
  10 H      -3.185943   4.074409   0.001540   -0.004894   0.009034   0.000015

                 ----------------------------------------
                 |  Time  |  1-e(secs)   |  2-e(secs)   |
                 ----------------------------------------
                 |  CPU   |       0.01   |       4.97   |
                 ----------------------------------------
                 |  WALL  |       0.01   |       4.97   |
                 ----------------------------------------

@ Step       Energy      Delta E   Gmax     Grms     Xrms     Xmax   Walltime
@ ---- ---------------- -------- -------- -------- -------- -------- --------
@    0    -712.66630236  0.0D+00  0.02537  0.00788  0.00000  0.00000      8.9
                                                                    



                                Z-matrix (autoz)
                                -------- 

 Units are Angstrom for bonds and degrees for angles

      Type          Name      I     J     K     L     M      Value     Gradient
      ----------- --------  ----- ----- ----- ----- ----- ---------- ----------
    1 Stretch                  1     2                       1.33685    0.02238
    2 Stretch                  1     9                       1.71300   -0.01090
    3 Stretch                  1    10                       1.08343    0.00961
    4 Stretch                  2     3                       1.44464   -0.01098
    5 Stretch                  2     6                       1.08893    0.00888
    6 Stretch                  3     4                       1.33369    0.02537
    7 Stretch                  3     7                       1.08688    0.00955
    8 Stretch                  4     5                       1.34569    0.01787
    9 Stretch                  4     8                       1.08023    0.00645
   10 Bend                     1     2     3               126.18896   -0.00100
   11 Bend                     1     2     6               117.31085    0.00252
   12 Bend                     2     1     9               126.12765    0.00267
   13 Bend                     2     1    10               122.58004    0.00064
   14 Bend                     2     3     4               123.09442    0.00231
   15 Bend                     2     3     7               118.89388   -0.00155
   16 Bend                     3     2     6               116.50018   -0.00152
   17 Bend                     3     4     5               121.20219    0.00021
   18 Bend                     3     4     8               127.72122    0.00141
   19 Bend                     4     3     7               118.01170   -0.00076
   20 Bend                     5     4     8               111.07659   -0.00162
   21 Bend                     9     1    10               111.29230   -0.00331
   22 Torsion                  1     2     3     4         179.82045   -0.00001
   23 Torsion                  1     2     3     7          -0.18194   -0.00001
   24 Torsion                  2     3     4     5        -179.99896    0.00000
   25 Torsion                  2     3     4     8          -0.02035   -0.00001
   26 Torsion                  3     2     1     9          -0.03115   -0.00001
   27 Torsion                  3     2     1    10         179.99864    0.00000
   28 Torsion                  4     3     2     6          -0.18029   -0.00001
   29 Torsion                  5     4     3     7           0.00341    0.00000
   30 Torsion                  6     2     1     9         179.96959   -0.00001
   31 Torsion                  6     2     1    10          -0.00062    0.00000
   32 Torsion                  6     2     3     7         179.81733   -0.00001
   33 Torsion                  7     3     4     8         179.98201   -0.00001

                                 NWChem SCF Module
                                 -----------------


                                       mol2



  ao basis        = "ao basis"
  functions       =   102
  atoms           =    10
  closed shells   =    27
  open shells     =     0
  charge          =   0.00
  wavefunction    = RHF 
  input vectors   = ./molecule.movecs
  output vectors  = ./molecule.movecs
  use symmetry    = F
  symmetry adapt  = F


 Summary of "ao basis" -> "ao basis" (cartesian)
 ------------------------------------------------------------------------------
       Tag                 Description            Shells   Functions and Types
 ---------------- ------------------------------  ------  ---------------------
 C                           6-31G*                  6       15   3s2p1d
 F                           6-31G*                  6       15   3s2p1d
 H                           6-31G*                  2        2   2s
 Cl                          6-31G*                  8       19   4s3p1d



 Forming initial guess at       8.9s


 Loading old vectors from job with title :

mol3


 Starting SCF solution at       9.0s



 ----------------------------------------------
         Quadratically convergent ROHF

 Convergence threshold     :          1.000E-04
 Maximum no. of iterations :           30
 Final Fock-matrix accuracy:          1.000E-07
 ----------------------------------------------


 Integral file          = ./molecule.aoints.0
 Record size in doubles =    65536    No. of integs per rec  =    43688
 Max. records in memory =        0    Max. records in file   =  1613234
 No. of bits per label  =        8    No. of bits per value  =       64


 #quartets = 4.432D+05 #integrals = 8.420D+06 #direct =  0.0% #cached =100.0%


              iter       energy          gnorm     gmax       time
             ----- ------------------- --------- --------- --------
                 1     -710.8343077139  3.34D+00  6.75D-01     10.3
                 2     -791.1116370006  4.94D+02  9.47D+01     11.3
  Setting level-shift to ****** to force positive preconditioner
                 3    -7665.5053878246  1.67D+04  7.03D+03     12.9
  Setting level-shift to ****** to force positive preconditioner
                 4   -37953.5466088538  2.25D+04  1.55D+04     15.1
  Setting level-shift to ****** to force positive preconditioner
                 5   -59951.6065139291  2.54D+04  7.70D+03     18.2
  Setting level-shift to ****** to force positive preconditioner
                 6   -84909.4248682180  1.16D+04  2.80D+03     22.0
  Setting level-shift to ****** to force positive preconditioner
                 7  -107963.6939566154  8.94D+03  2.38D+03     26.3
  Setting level-shift to ****** to force positive preconditioner
                 8  -122439.8337175934  8.03D+03  2.50D+03     29.9
  Setting level-shift to ****** to force positive preconditioner
                 9  -128731.9221595592  5.13D+03  3.07D+03     34.4
  Setting level-shift to ****** to force positive preconditioner
                10  -133370.2327700675  2.38D+03  6.17D+02     37.3
  Setting level-shift to ****** to force positive preconditioner
                11  -135595.9590348720  2.44D+03  1.03D+03     41.6
  Setting level-shift to ****** to force positive preconditioner
                12  -137327.1469997047  1.05D+03  3.49D+02     42.4
  Setting level-shift to 708.95 to force positive preconditioner
                13  -137921.1167750457  3.54D+02  2.03D+02     43.2
  Setting level-shift to 300.75 to force positive preconditioner
                14  -138086.5611504455  2.44D+02  9.79D+01     44.9
                15  -138111.1689808424  1.60D+01  5.76D+00     45.1
                16  -138111.2304182372  3.50D+00  1.84D+00     45.4
                17  -138111.2304847201  5.06D-01  1.73D-01     45.6
                18  -138111.2304873251  2.01D-01  1.14D-01     45.8
                19  -138111.2304875974  3.41D-02  1.09D-02     46.0
                20  -138111.2304876107  2.40D-04  1.01D-04     46.4
                21  -138111.2304876104  2.38D-06  8.55D-07     46.9


       Final RHF  results 
       ------------------ 

         Total SCF energy =-138111.230487610359
      One-electron energy =   -587.219562731507
      Two-electron energy =-137775.664830880938
 Nuclear repulsion energy =    251.653906002096

        Time for solution =     38.3s


             Final eigenvalues
             -----------------

              1      
    1 *********
    2 *********
    3 *********
    4 *********
    5 *********
    6 *********
    7 *********
    8 *********
    9 *********
   10 *********
   11 -987.2117
   12 -718.9523
   13 -583.1149
   14 -497.6024
   15 -423.6825
   16 -346.7715
   17 -232.5448
   18 -200.6994
   19 -197.4489
   20 -175.4728
   21 -168.1643
   22 -160.9822
   23 -146.5692
   24 -142.6219
   25 -133.6592
   26 -129.5719
   27 -126.6011
   28  -74.3060
   29   26.2870
   30   34.3930
   31   61.4194
   32   64.2885
   33   76.3720
   34   77.9236
   35   90.3220
   36  111.5247
   37  125.7713

                       ROHF Final Molecular Orbital Analysis
                       -------------------------------------

 Vector   18  Occ=2.000000D+00  E=-2.006994D+02
              MO Center= -4.3D-01, -2.0D+00, -5.7D-03, r^2= 3.3D+00
   Bfn.  Coefficient  Atom+Function         Bfn.  Coefficient  Atom+Function  
  ----- ------------  ---------------      ----- ------------  ---------------
    54      1.216701   4 C  pz               24     -0.533334   2 C  pz        
     9      0.398187   1 C  pz               74     -0.258316   5 F  dyz       
    50     -0.248388   4 C  pz               44      0.217609   3 C  dyz       
    69     -0.152310   5 F  pz        

 Vector   19  Occ=2.000000D+00  E=-1.974489D+02
              MO Center= -5.6D-01,  2.8D-01,  1.5D-02, r^2= 8.1D+00
   Bfn.  Coefficient  Atom+Function         Bfn.  Coefficient  Atom+Function  
  ----- ------------  ---------------      ----- ------------  ---------------
   102      0.805055  10 H  s                36     -0.601440   3 C  s         
    79      0.549447   7 H  s                87      0.551830   9 Cl s         
     6     -0.510385   1 C  s                93      0.489191   9 Cl py        
   101     -0.491442  10 H  s                37      0.463500   3 C  px        
    78     -0.393070   7 H  s                21      0.384499   2 C  s         

 Vector   20  Occ=2.000000D+00  E=-1.754728D+02
              MO Center= -8.8D-02, -2.0D+00, -4.7D-02, r^2= 5.1D+00
   Bfn.  Coefficient  Atom+Function         Bfn.  Coefficient  Atom+Function  
  ----- ------------  ---------------      ----- ------------  ---------------
    81      0.766635   8 H  s                51     -0.628690   4 C  s         
    79     -0.627813   7 H  s                36      0.590218   3 C  s         
    77      0.491854   6 H  s                67     -0.461758   5 F  px        
    80     -0.461468   8 H  s                21     -0.373302   2 C  s         
    78      0.355091   7 H  s                53     -0.223371   4 C  py        

 Vector   21  Occ=2.000000D+00  E=-1.681643D+02
              MO Center=  5.3D-02,  2.0D-01,  1.4D-02, r^2= 4.8D+00
   Bfn.  Coefficient  Atom+Function         Bfn.  Coefficient  Atom+Function  
  ----- ------------  ---------------      ----- ------------  ---------------
    39      0.953872   3 C  pz               94     -0.626611   9 Cl pz        
    54     -0.376943   4 C  pz               90      0.342870   9 Cl pz        
     9     -0.316574   1 C  pz               29      0.285941   2 C  dyz       
    24      0.278789   2 C  pz               69      0.215602   5 F  pz        
    14      0.187019   1 C  dyz       

 Vector   22  Occ=2.000000D+00  E=-1.609822D+02
              MO Center=  4.8D-01,  6.9D-01,  4.1D-02, r^2= 9.3D+00
   Bfn.  Coefficient  Atom+Function         Bfn.  Coefficient  Atom+Function  
  ----- ------------  ---------------      ----- ------------  ---------------
    92      0.814936   9 Cl px               93      0.678541   9 Cl py        
    52     -0.527085   4 C  px               51     -0.462311   4 C  s         
    23      0.421550   2 C  py               81      0.409742   8 H  s         
    67      0.389876   5 F  px               88     -0.390806   9 Cl px        
    80     -0.371756   8 H  s                89     -0.288796   9 Cl py        

 Vector   23  Occ=2.000000D+00  E=-1.465692D+02
              MO Center= -1.5D-01,  2.9D-01,  9.6D-02, r^2= 7.5D+00
   Bfn.  Coefficient  Atom+Function         Bfn.  Coefficient  Atom+Function  
  ----- ------------  ---------------      ----- ------------  ---------------
    94      0.807366   9 Cl pz               24      0.561062   2 C  pz        
    67     -0.454758   5 F  px                9     -0.392112   1 C  pz        
    23     -0.370117   2 C  py              102     -0.356510  10 H  s         
    90     -0.351529   9 Cl pz               52      0.343555   4 C  px        
    22      0.237533   2 C  px              101      0.210249  10 H  s         

 Vector   24  Occ=2.000000D+00  E=-1.426219D+02
              MO Center= -1.2D-03,  5.9D-01, -1.9D-01, r^2= 7.3D+00
   Bfn.  Coefficient  Atom+Function         Bfn.  Coefficient  Atom+Function  
  ----- ------------  ---------------      ----- ------------  ---------------
    94      0.853784   9 Cl pz                9     -0.430250   1 C  pz        
    67      0.395501   5 F  px               90     -0.361893   9 Cl pz        
    24      0.357645   2 C  pz              102      0.357296  10 H  s         
    23      0.350771   2 C  py               52     -0.298218   4 C  px        
    92     -0.260166   9 Cl px               77      0.236200   6 H  s         

 Vector   25  Occ=2.000000D+00  E=-1.336592D+02
              MO Center= -5.5D-01, -1.6D-01,  9.1D-02, r^2= 4.7D+00
   Bfn.  Coefficient  Atom+Function         Bfn.  Coefficient  Atom+Function  
  ----- ------------  ---------------      ----- ------------  ---------------
    24      0.884445   2 C  pz               39     -0.746118   3 C  pz        
    22     -0.647597   2 C  px               54      0.463502   4 C  pz        
    37      0.451235   3 C  px               93     -0.375961   9 Cl py        
     7      0.279696   1 C  px               87     -0.264205   9 Cl s         
    68     -0.249238   5 F  py               78     -0.246192   7 H  s         

 Vector   26  Occ=2.000000D+00  E=-1.295719D+02
              MO Center= -3.9D-01,  1.1D-01, -2.5D-02, r^2= 5.2D+00
   Bfn.  Coefficient  Atom+Function         Bfn.  Coefficient  Atom+Function  
  ----- ------------  ---------------      ----- ------------  ---------------
    24      0.780214   2 C  pz               39     -0.770435   3 C  pz        
    22      0.517060   2 C  px               54      0.488348   4 C  pz        
    93      0.441897   9 Cl py               37     -0.425037   3 C  px        
    87      0.290212   9 Cl s                94     -0.276621   9 Cl pz        
     7     -0.246129   1 C  px               78      0.245530   7 H  s         

 Vector   27  Occ=2.000000D+00  E=-1.266011D+02
              MO Center= -7.7D-01,  1.1D+00,  1.6D-02, r^2= 3.5D+00
   Bfn.  Coefficient  Atom+Function         Bfn.  Coefficient  Atom+Function  
  ----- ------------  ---------------      ----- ------------  ---------------
     9      1.138761   1 C  pz               39      0.654409   3 C  pz        
    54     -0.500571   4 C  pz               24     -0.485026   2 C  pz        
    27     -0.219501   2 C  dxz              99      0.194069   9 Cl dyz       
    94     -0.178494   9 Cl pz               69      0.158552   5 F  pz        

 Vector   28  Occ=0.000000D+00  E=-7.430602D+01
              MO Center= -1.4D-01,  1.0D+00, -1.2D-02, r^2= 4.3D+00
   Bfn.  Coefficient  Atom+Function         Bfn.  Coefficient  Atom+Function  
  ----- ------------  ---------------      ----- ------------  ---------------
    92      0.661229   9 Cl px                7     -0.515925   1 C  px        
    38     -0.455355   3 C  py               88     -0.286479   9 Cl px        
    93     -0.254656   9 Cl py               52      0.231182   4 C  px        
    77      0.217516   6 H  s         

 Vector   29  Occ=0.000000D+00  E= 2.628697D+01
              MO Center=  6.5D-01,  2.2D+00,  6.3D-06, r^2= 9.4D-03
   Bfn.  Coefficient  Atom+Function         Bfn.  Coefficient  Atom+Function  
  ----- ------------  ---------------      ----- ------------  ---------------
    82      1.002590   9 Cl s         

 Vector   30  Occ=0.000000D+00  E= 3.439297D+01
              MO Center= -2.0D-01, -1.4D+00,  1.9D-03, r^2= 1.5D+00
   Bfn.  Coefficient  Atom+Function         Bfn.  Coefficient  Atom+Function  
  ----- ------------  ---------------      ----- ------------  ---------------
    41      0.540729   3 C  dxy              56     -0.481437   4 C  dxy       
    33     -0.354264   3 C  px               48     -0.325602   4 C  px        
    26      0.285682   2 C  dxy              40     -0.239578   3 C  dxx       
    58      0.225351   4 C  dyy              73     -0.195992   5 F  dyy       
    11     -0.184432   1 C  dxy              51      0.177730   4 C  s         

 Vector   31  Occ=0.000000D+00  E= 6.141944D+01
              MO Center= -6.5D-01,  2.9D-01,  1.3D-03, r^2= 2.7D+00
   Bfn.  Coefficient  Atom+Function         Bfn.  Coefficient  Atom+Function  
  ----- ------------  ---------------      ----- ------------  ---------------
    26      0.655056   2 C  dxy              11     -0.544260   1 C  dxy       
    10     -0.357744   1 C  dxx              28      0.284098   2 C  dyy       
    18      0.235029   2 C  px               21      0.236001   2 C  s         
    43     -0.216284   3 C  dyy              73      0.201031   5 F  dyy       
    58     -0.192944   4 C  dyy              96     -0.189587   9 Cl dxy       

 Vector   32  Occ=0.000000D+00  E= 6.428855D+01
              MO Center= -5.9D-01,  3.0D-01,  1.8D-03, r^2= 2.2D+00
   Bfn.  Coefficient  Atom+Function         Bfn.  Coefficient  Atom+Function  
  ----- ------------  ---------------      ----- ------------  ---------------
    11      0.419371   1 C  dxy              28      0.396961   2 C  dyy       
    43     -0.384223   3 C  dyy              25     -0.343345   2 C  dxx       
    13      0.313067   1 C  dyy              26     -0.268922   2 C  dxy       
     6      0.223211   1 C  s                98     -0.195111   9 Cl dyy       
    19     -0.193697   2 C  py              101      0.187120  10 H  s         

 Vector   33  Occ=0.000000D+00  E= 7.637195D+01
              MO Center=  1.3D-02, -2.1D+00,  3.1D-03, r^2= 2.6D+00
   Bfn.  Coefficient  Atom+Function         Bfn.  Coefficient  Atom+Function  
  ----- ------------  ---------------      ----- ------------  ---------------
    73      0.532083   5 F  dyy              49      0.398978   4 C  py        
    56     -0.340212   4 C  dxy              55      0.316501   4 C  dxx       
    41      0.289964   3 C  dxy              58     -0.272204   4 C  dyy       
    70     -0.223747   5 F  dxx              64      0.174588   5 F  py        
    51      0.156548   4 C  s         

 Vector   34  Occ=0.000000D+00  E= 7.792358D+01
              MO Center= -6.5D-01,  1.4D+00,  3.9D-04, r^2= 2.1D+00
   Bfn.  Coefficient  Atom+Function         Bfn.  Coefficient  Atom+Function  
  ----- ------------  ---------------      ----- ------------  ---------------
    87      0.782953   9 Cl s                95     -0.427755   9 Cl dxx       
     4     -0.421536   1 C  py              100     -0.417687   9 Cl dzz       
   101     -0.398348  10 H  s                89     -0.345085   9 Cl py        
     3      0.283196   1 C  px               28      0.245894   2 C  dyy       
    43     -0.220257   3 C  dyy              83     -0.173680   9 Cl s         

 Vector   35  Occ=0.000000D+00  E= 9.032204D+01
              MO Center= -2.9D-01, -1.7D+00, -3.6D-03, r^2= 2.2D+00
   Bfn.  Coefficient  Atom+Function         Bfn.  Coefficient  Atom+Function  
  ----- ------------  ---------------      ----- ------------  ---------------
    71     -0.465355   5 F  dxy              48      0.451919   4 C  px        
    80     -0.389808   8 H  s                34     -0.293237   3 C  py        
    78     -0.215955   7 H  s                58      0.197995   4 C  dyy       
    28      0.166334   2 C  dyy              87      0.163886   9 Cl s         
    13      0.154806   1 C  dyy       

 Vector   36  Occ=0.000000D+00  E= 1.115247D+02
              MO Center= -2.1D-01,  7.0D-01,  9.2D-03, r^2= 3.1D+00
   Bfn.  Coefficient  Atom+Function         Bfn.  Coefficient  Atom+Function  
  ----- ------------  ---------------      ----- ------------  ---------------
    96      0.386131   9 Cl dxy              98     -0.361057   9 Cl dyy       
    78      0.358618   7 H  s               101     -0.351049  10 H  s         
    13      0.289241   1 C  dyy               3      0.279528   1 C  px        
    19      0.277617   2 C  py               33      0.261874   3 C  px        
    34      0.236537   3 C  py               95      0.208971   9 Cl dxx       

 Vector   37  Occ=0.000000D+00  E= 1.257713D+02
              MO Center=  3.2D-01, -1.3D+00,  1.1D-02, r^2= 5.0D+00
   Bfn.  Coefficient  Atom+Function         Bfn.  Coefficient  Atom+Function  
  ----- ------------  ---------------      ----- ------------  ---------------
    71      0.856111   5 F  dxy              56      0.410962   4 C  dxy       
    98     -0.319628   9 Cl dyy              78     -0.286542   7 H  s         
    21      0.277418   2 C  s                49      0.263534   4 C  py        
    36     -0.246285   3 C  s                33     -0.216749   3 C  px        
    96      0.199589   9 Cl dxy               6     -0.194491   1 C  s         


------------------------------------------------------------
EAF file 0: "./molecule.aoints.0" size=106954752 bytes
------------------------------------------------------------
               write      read    awrite     aread      wait
               -----      ----    ------     -----      ----
     calls:      193       181         0     34752     34752
   data(b): 1.01e+08  9.49e+07  0.00e+00  1.82e+10
   time(s): 0.00e+00  0.00e+00  0.00e+00  0.00e+00  0.00e+00
rate(mb/s): 0.00e+00  0.00e+00
------------------------------------------------------------


 center of mass
 --------------
 x =   0.09239123 y =  -0.00080848 z =  -0.00016408

 moments of inertia (a.u.)
 ------------------
        1624.310091015886          -3.582864019934           0.035613118309
          -3.582864019934         203.204326511717           0.070458377493
           0.035613118309           0.070458377493        1827.513731286475

  Mulliken analysis of the total density
  --------------------------------------

    Atom       Charge   Shell Charges
 -----------   ------   -------------------------------------------------------
    1 C    6     7.10   0.01  0.46 -0.03  1.83  4.69  0.13
    2 C    6     8.66   0.00  0.40 -0.06  2.30  6.14 -0.13
    3 C    6     7.60   0.00  0.46 -0.27  1.81  5.86 -0.27
    4 C    6     7.12   0.01  0.24 -0.42  1.77  5.72 -0.20
    5 F    9     8.56  -0.00  0.47 -0.45  1.98  6.75 -0.19
    6 H    1     1.55   0.12  1.43
    7 H    1     1.99   0.01  1.99
    8 H    1     2.03   0.03  2.00
    9 Cl  17     7.41  -0.00  0.02  0.00  0.27 -0.59  1.96  5.40  0.35
   10 H    1     1.98  -0.01  1.99

       Multipole analysis of the density wrt the origin
       ------------------------------------------------

     L   x y z        total         open         nuclear
     -   - - -        -----         ----         -------
     0   0 0 0     -0.000000      0.000000     54.000000

     1   1 0 0     30.095017      0.000000     -0.095273
     1   0 1 0     40.788599      0.000000     -0.416684
     1   0 0 1     -0.040302      0.000000     -0.008215

     2   2 0 0   -250.819542      0.000000    117.856645
     2   1 1 0     19.153260      0.000000      2.184350
     2   1 0 1      0.214592      0.000000     -0.040017
     2   0 2 0    -97.113126      0.000000    807.515941
     2   0 1 1     -0.125118      0.000000     -0.048522
     2   0 0 2   -157.495942      0.000000      0.000255


 Parallel integral file used     193 records with       0 large values

 Line search: 
     step= 1.00 grad=-5.1D-03 hess=-1.4D+05 energy=-138111.230488 mode=negative
 new step= 2.00                   predicted energy=-550306.912779

          --------
          Step   1
          --------


                         Geometry "geometry" -> "geometry"
                         ---------------------------------

 Output coordinates in angstroms (scale by  1.889725989 to convert to a.u.)

  No.       Tag          Charge          X              Y              Z
 ---- ---------------- ---------- -------------- -------------- --------------
    1 C                    6.0000    -0.89621931     1.40701406     0.00016602
    2 C                    6.0000    -1.04742854     0.12325883    -0.00034679
    3 C                    6.0000     0.01399492    -0.89573334    -0.00151067
    4 C                    6.0000    -0.27296415    -2.14702787     0.00109967
    5 F                    9.0000     0.65970707    -3.04343537    -0.00003487
    6 H                    1.0000    -2.05715784    -0.20542427     0.00006374
    7 H                    1.0000     1.03208275    -0.60845056    -0.00458485
    8 H                    1.0000    -1.24724736    -2.56679665     0.00430431
    9 Cl                  17.0000     0.65710761     2.19619363    -0.00032542
   10 H                    1.0000    -1.72149809     2.06341872     0.00086614

      Atomic Mass 
      ----------- 

      C                 12.000000
      F                 18.998400
      H                  1.007825
      Cl                34.968850


 Effective nuclear repulsion energy (a.u.)     253.7861840276

            Nuclear Dipole moment (a.u.) 
            ----------------------------
        X                 Y               Z
 ---------------- ---------------- ----------------
    -0.1914858105    -0.8462371170    -0.0165298005

                                 NWChem SCF Module
                                 -----------------


                                       mol2



  ao basis        = "ao basis"
  functions       =   102
  atoms           =    10
  closed shells   =    27
  open shells     =     0
  charge          =   0.00
  wavefunction    = RHF 
  input vectors   = ./molecule.movecs
  output vectors  = ./molecule.movecs
  use symmetry    = F
  symmetry adapt  = F


 Summary of "ao basis" -> "ao basis" (cartesian)
 ------------------------------------------------------------------------------
       Tag                 Description            Shells   Functions and Types
 ---------------- ------------------------------  ------  ---------------------
 C                           6-31G*                  6       15   3s2p1d
 F                           6-31G*                  6       15   3s2p1d
 H                           6-31G*                  2        2   2s
 Cl                          6-31G*                  8       19   4s3p1d



 Forming initial guess at      54.2s


 Loading old vectors from job with title :

mol2


 Starting SCF solution at      54.3s



 ----------------------------------------------
         Quadratically convergent ROHF

 Convergence threshold     :          1.000E-04
 Maximum no. of iterations :           30
 Final Fock-matrix accuracy:          1.000E-07
 ----------------------------------------------


 Integral file          = ./molecule.aoints.0
 Record size in doubles =    65536    No. of integs per rec  =    43688
 Max. records in memory =        0    Max. records in file   =  1612818
 No. of bits per label  =        8    No. of bits per value  =       64


 #quartets = 4.935D+05 #integrals = 1.102D+07 #direct =  0.0% #cached =100.0%


              iter       energy          gnorm     gmax       time
             ----- ------------------- --------- --------- --------
                 1      -56.0043605006  3.43D+01  4.55D+00     48.9
  Setting level-shift to 571.56 to force positive preconditioner
                 2     -336.4633440222  5.41D+01  2.19D+01     50.4
  Setting level-shift to 149.27 to force positive preconditioner
                 3     -432.8381151750  6.15D+01  3.33D+01     51.7
  Setting level-shift to  89.80 to force positive preconditioner
                 4     -605.5793719538  6.31D+01  2.01D+01     52.6
  Setting level-shift to  41.39 to force positive preconditioner
                 5     -664.0196302732  3.14D+01  1.64D+01     52.8
  Setting level-shift to  13.12 to force positive preconditioner
                 6     -696.9343944625  1.18D+01  2.63D+00     53.4
  Setting level-shift to   7.84 to force positive preconditioner
                 7     -705.4735590067  7.77D+00  1.62D+00     53.7
                 8     -709.1821989052  6.20D+00  1.50D+00     54.0
                 9     -710.6868517773  3.38D+00  9.91D-01     54.3
                10     -711.4363024071  2.75D+00  7.38D-01     54.6
                11     -711.8506944556  1.93D+00  7.56D-01     54.9
                12     -712.4437492571  1.63D+00  4.91D-01     55.4
                13     -712.5932707171  8.08D-01  1.87D-01     55.7
                14     -712.6576755075  2.12D-01  4.63D-02     55.8
                15     -712.6639800981  1.91D-02  4.87D-03     56.1
                16     -712.6640413032  2.76D-04  4.69D-05     56.6
                17     -712.6640413153  4.13D-06  8.78D-07     57.1


       Final RHF  results 
       ------------------ 

         Total SCF energy =   -712.664041315297
      One-electron energy =  -1485.436020224686
      Two-electron energy =    518.985794881750
 Nuclear repulsion energy =    253.786184027639

        Time for solution =     10.2s


             Final eigenvalues
             -----------------

              1      
    1 -104.8260
    2  -26.3204
    3  -11.3253
    4  -11.2914
    5  -11.2574
    6  -11.2365
    7  -10.5598
    8   -8.0292
    9   -8.0259
   10   -8.0258
   11   -1.6527
   12   -1.1676
   13   -1.0975
   14   -1.0124
   15   -0.8597
   16   -0.7940
   17   -0.7404
   18   -0.7153
   19   -0.7057
   20   -0.6464
   21   -0.6053
   22   -0.5665
   23   -0.5252
   24   -0.5194
   25   -0.4529
   26   -0.4378
   27   -0.3355
   28    0.1294
   29    0.2122
   30    0.2392
   31    0.2528
   32    0.2853
   33    0.3056
   34    0.3199
   35    0.3845
   36    0.4848
   37    0.5044

                       ROHF Final Molecular Orbital Analysis
                       -------------------------------------

 Vector   12  Occ=2.000000D+00  E=-1.167646D+00
              MO Center= -2.1D-01,  1.3D+00, -2.3D-04, r^2= 2.1D+00
   Bfn.  Coefficient  Atom+Function         Bfn.  Coefficient  Atom+Function  
  ----- ------------  ---------------      ----- ------------  ---------------
    87      0.458485   9 Cl s                83     -0.236696   9 Cl s         
     2      0.232873   1 C  s                17      0.187829   2 C  s         
     6      0.181220   1 C  s                91      0.165553   9 Cl s         

 Vector   13  Occ=2.000000D+00  E=-1.097500D+00
              MO Center= -7.5D-02, -3.9D-01, -3.1D-04, r^2= 3.6D+00
   Bfn.  Coefficient  Atom+Function         Bfn.  Coefficient  Atom+Function  
  ----- ------------  ---------------      ----- ------------  ---------------
    87      0.356408   9 Cl s                32     -0.261983   3 C  s         
    47     -0.219519   4 C  s                83     -0.181532   9 Cl s         
    36     -0.172021   3 C  s         

 Vector   14  Occ=2.000000D+00  E=-1.012413D+00
              MO Center= -4.3D-01,  2.8D-01, -7.0D-05, r^2= 3.9D+00
   Bfn.  Coefficient  Atom+Function         Bfn.  Coefficient  Atom+Function  
  ----- ------------  ---------------      ----- ------------  ---------------
    87      0.360036   9 Cl s                17     -0.227564   2 C  s         
    47      0.187344   4 C  s                91      0.184869   9 Cl s         
     2     -0.182248   1 C  s                83     -0.180778   9 Cl s         
     6     -0.162582   1 C  s                21     -0.150134   2 C  s         

 Vector   15  Occ=2.000000D+00  E=-8.596933D-01
              MO Center= -6.2D-02, -1.6D+00,  1.5D-04, r^2= 4.1D+00
   Bfn.  Coefficient  Atom+Function         Bfn.  Coefficient  Atom+Function  
  ----- ------------  ---------------      ----- ------------  ---------------
    63      0.306959   5 F  px               47     -0.201653   4 C  s         
    67      0.191419   5 F  px               49      0.181260   4 C  py        
    32      0.171952   3 C  s                66      0.165262   5 F  s         

 Vector   16  Occ=2.000000D+00  E=-7.939865D-01
              MO Center= -4.0D-01, -8.2D-01,  2.2D-04, r^2= 4.9D+00
   Bfn.  Coefficient  Atom+Function         Bfn.  Coefficient  Atom+Function  
  ----- ------------  ---------------      ----- ------------  ---------------
    64      0.239762   5 F  py               48      0.207371   4 C  px        
     2      0.159752   1 C  s                33      0.160538   3 C  px        
     6      0.159378   1 C  s                68      0.158514   5 F  py        

 Vector   17  Occ=2.000000D+00  E=-7.403986D-01
              MO Center= -1.6D-01, -1.2D+00,  2.8D-04, r^2= 5.5D+00
   Bfn.  Coefficient  Atom+Function         Bfn.  Coefficient  Atom+Function  
  ----- ------------  ---------------      ----- ------------  ---------------
    64      0.318481   5 F  py               63     -0.227702   5 F  px        
    48      0.215892   4 C  px               68      0.210009   5 F  py        
     4     -0.193846   1 C  py               49     -0.193947   4 C  py        
    34      0.153251   3 C  py        

 Vector   18  Occ=2.000000D+00  E=-7.153121D-01
              MO Center= -2.9D-01, -8.1D-01, -5.6D-04, r^2= 4.4D+00
   Bfn.  Coefficient  Atom+Function         Bfn.  Coefficient  Atom+Function  
  ----- ------------  ---------------      ----- ------------  ---------------
    64     -0.267562   5 F  py               18      0.253338   2 C  px        
    63     -0.205028   5 F  px               68     -0.187295   5 F  py        
    76     -0.184807   6 H  s                34      0.157845   3 C  py        
    36      0.157737   3 C  s         

 Vector   19  Occ=2.000000D+00  E=-7.056606D-01
              MO Center=  5.4D-01, -2.9D+00,  6.3D-05, r^2= 6.8D-01
   Bfn.  Coefficient  Atom+Function         Bfn.  Coefficient  Atom+Function  
  ----- ------------  ---------------      ----- ------------  ---------------
    65      0.612350   5 F  pz               69      0.426614   5 F  pz        
    50      0.170116   4 C  pz        

 Vector   20  Occ=2.000000D+00  E=-6.464205D-01
              MO Center= -5.5D-01, -2.1D-01, -1.3D-04, r^2= 4.8D+00
   Bfn.  Coefficient  Atom+Function         Bfn.  Coefficient  Atom+Function  
  ----- ------------  ---------------      ----- ------------  ---------------
    63     -0.279172   5 F  px                4      0.268429   1 C  py        
    19     -0.231939   2 C  py               67     -0.197910   5 F  px        
     3     -0.176404   1 C  px              101      0.159779  10 H  s         

 Vector   21  Occ=2.000000D+00  E=-6.053041D-01
              MO Center= -3.9D-02,  1.8D-01, -7.3D-04, r^2= 4.0D+00
   Bfn.  Coefficient  Atom+Function         Bfn.  Coefficient  Atom+Function  
  ----- ------------  ---------------      ----- ------------  ---------------
    88      0.320407   9 Cl px               19      0.279718   2 C  py        
    33      0.250673   3 C  px               64     -0.225383   5 F  py        
     4     -0.223460   1 C  py               34     -0.163378   3 C  py        
    68     -0.163919   5 F  py                3     -0.153770   1 C  px        
    18     -0.151012   2 C  px               91      0.151749   9 Cl s         

 Vector   22  Occ=2.000000D+00  E=-5.664814D-01
              MO Center= -7.8D-02, -1.8D+00,  3.2D-04, r^2= 3.1D+00
   Bfn.  Coefficient  Atom+Function         Bfn.  Coefficient  Atom+Function  
  ----- ------------  ---------------      ----- ------------  ---------------
    63      0.282558   5 F  px               34      0.258907   3 C  py        
    49     -0.247762   4 C  py               48     -0.232941   4 C  px        
    64      0.228177   5 F  py               67      0.216451   5 F  px        
    80      0.213424   8 H  s                81      0.183486   8 H  s         
    68      0.172899   5 F  py               33      0.156328   3 C  px        

 Vector   23  Occ=2.000000D+00  E=-5.252086D-01
              MO Center= -4.2D-01,  8.0D-01, -1.1D-05, r^2= 3.7D+00
   Bfn.  Coefficient  Atom+Function         Bfn.  Coefficient  Atom+Function  
  ----- ------------  ---------------      ----- ------------  ---------------
    88      0.314626   9 Cl px               18      0.285674   2 C  px        
    89      0.268413   9 Cl py                3     -0.226979   1 C  px        
    33     -0.223107   3 C  px               22      0.210186   2 C  px        
    76     -0.190649   6 H  s                 7     -0.186318   1 C  px        

 Vector   24  Occ=2.000000D+00  E=-5.194467D-01
              MO Center= -7.3D-02,  1.4D+00, -6.6D-04, r^2= 2.7D+00
   Bfn.  Coefficient  Atom+Function         Bfn.  Coefficient  Atom+Function  
  ----- ------------  ---------------      ----- ------------  ---------------
    90      0.502358   9 Cl pz                5      0.266710   1 C  pz        
    94      0.253128   9 Cl pz               20      0.214883   2 C  pz        
    86     -0.195121   9 Cl pz                9      0.178437   1 C  pz        

 Vector   25  Occ=2.000000D+00  E=-4.529172D-01
              MO Center=  4.9D-01,  2.1D+00, -3.0D-04, r^2= 1.7D+00
   Bfn.  Coefficient  Atom+Function         Bfn.  Coefficient  Atom+Function  
  ----- ------------  ---------------      ----- ------------  ---------------
[...]
  output vectors  = ./molecule.movecs
  use symmetry    = F
  symmetry adapt  = F


 Summary of "ao basis" -> "ao basis" (cartesian)
 ------------------------------------------------------------------------------
       Tag                 Description            Shells   Functions and Types
 ---------------- ------------------------------  ------  ---------------------
 C                           6-31G*                  6       15   3s2p1d
 F                           6-31G*                  6       15   3s2p1d
 H                           6-31G*                  2        2   2s
 Cl                          6-31G*                  8       19   4s3p1d



  The SCF is already converged 

         Total SCF energy =   -712.668688453592

                              NWChem Gradients Module
                              -----------------------


                                       mol2


  wavefunction    =   RHF     



                         RHF ENERGY GRADIENTS

    atom               coordinates                        gradient
                 x          y          z           x          y          z
   1 C      -1.677783   2.705794  -0.000915    0.000041   0.000037  -0.000023
   2 C      -1.970584   0.230122   0.002216   -0.000072   0.000046   0.000027
   3 C       0.018842  -1.685411   0.000510   -0.000037   0.000132   0.000017
   4 C      -0.522088  -4.112410   0.000056   -0.000117   0.000021  -0.000014
   5 F       1.265910  -5.864951  -0.001466    0.000201  -0.000247   0.000004
   6 H      -3.895126  -0.433535   0.005982   -0.000018   0.000009  -0.000007
   7 H       1.961939  -1.102463  -0.000854    0.000077   0.000028  -0.000005
   8 H      -2.383348  -4.916064   0.000829   -0.000067  -0.000062  -0.000005
   9 Cl      1.221857   4.241067  -0.007750    0.000029   0.000024  -0.000003
  10 H      -3.240771   3.989362   0.000820   -0.000036   0.000012   0.000009

                 ----------------------------------------
                 |  Time  |  1-e(secs)   |  2-e(secs)   |
                 ----------------------------------------
                 |  CPU   |       0.02   |       4.86   |
                 ----------------------------------------
                 |  WALL  |       0.01   |       4.86   |
                 ----------------------------------------

  Step       Energy      Delta E   Gmax     Grms     Xrms     Xmax   Walltime
  ---- ---------------- -------- -------- -------- -------- -------- --------
@    7    -712.66868845 -2.9D-08  0.00032  0.00008  0.00027  0.00060    183.0
                                     ok       ok       ok       ok  



                                Z-matrix (autoz)
                                -------- 

 Units are Angstrom for bonds and degrees for angles

      Type          Name      I     J     K     L     M      Value     Gradient
      ----------- --------  ----- ----- ----- ----- ----- ---------- ----------
    1 Stretch                  1     2                       1.31920    0.00008
    2 Stretch                  1     9                       1.73624    0.00004
    3 Stretch                  1    10                       1.07026    0.00004
    4 Stretch                  2     3                       1.46144    0.00013
    5 Stretch                  2     6                       1.07728    0.00001
    6 Stretch                  3     4                       1.31583    0.00028
    7 Stretch                  3     7                       1.07352    0.00008
    8 Stretch                  4     5                       1.32488    0.00032
    9 Stretch                  4     8                       1.07283    0.00009
   10 Bend                     1     2     3               127.17073   -0.00001
   11 Bend                     1     2     6               115.77140   -0.00000
   12 Bend                     2     1     9               124.64506    0.00001
   13 Bend                     2     1    10               122.64852   -0.00001
   14 Bend                     2     3     4               121.35122    0.00006
   15 Bend                     2     3     7               119.38432   -0.00003
   16 Bend                     3     2     6               117.05787    0.00001
   17 Bend                     3     4     5               121.86151    0.00002
   18 Bend                     3     4     8               125.91841    0.00001
   19 Bend                     4     3     7               119.26445   -0.00003
   20 Bend                     5     4     8               112.22008   -0.00003
   21 Bend                     9     1    10               112.70642    0.00000
   22 Torsion                  1     2     3     4        -179.89217    0.00001
   23 Torsion                  1     2     3     7           0.09282    0.00000
   24 Torsion                  2     3     4     5        -179.99945    0.00000
   25 Torsion                  2     3     4     8           0.00049    0.00000
   26 Torsion                  3     2     1     9          -0.00360   -0.00000
   27 Torsion                  3     2     1    10        -179.99451    0.00000
   28 Torsion                  4     3     2     6           0.09165    0.00000
   29 Torsion                  5     4     3     7           0.01556    0.00000
   30 Torsion                  6     2     1     9        -179.98760    0.00000
   31 Torsion                  6     2     1    10           0.02150    0.00001
   32 Torsion                  6     2     3     7        -179.92337   -0.00000
   33 Torsion                  7     3     4     8        -179.98451    0.00000


      ----------------------
      Optimization converged
      ----------------------


  Step       Energy      Delta E   Gmax     Grms     Xrms     Xmax   Walltime
  ---- ---------------- -------- -------- -------- -------- -------- --------
@    7    -712.66868845 -2.9D-08  0.00032  0.00008  0.00027  0.00060    183.0
                                     ok       ok       ok       ok  



                                Z-matrix (autoz)
                                -------- 

 Units are Angstrom for bonds and degrees for angles

      Type          Name      I     J     K     L     M      Value     Gradient
      ----------- --------  ----- ----- ----- ----- ----- ---------- ----------
    1 Stretch                  1     2                       1.31920    0.00008
    2 Stretch                  1     9                       1.73624    0.00004
    3 Stretch                  1    10                       1.07026    0.00004
    4 Stretch                  2     3                       1.46144    0.00013
    5 Stretch                  2     6                       1.07728    0.00001
    6 Stretch                  3     4                       1.31583    0.00028
    7 Stretch                  3     7                       1.07352    0.00008
    8 Stretch                  4     5                       1.32488    0.00032
    9 Stretch                  4     8                       1.07283    0.00009
   10 Bend                     1     2     3               127.17073   -0.00001
   11 Bend                     1     2     6               115.77140   -0.00000
   12 Bend                     2     1     9               124.64506    0.00001
   13 Bend                     2     1    10               122.64852   -0.00001
   14 Bend                     2     3     4               121.35122    0.00006
   15 Bend                     2     3     7               119.38432   -0.00003
   16 Bend                     3     2     6               117.05787    0.00001
   17 Bend                     3     4     5               121.86151    0.00002
   18 Bend                     3     4     8               125.91841    0.00001
   19 Bend                     4     3     7               119.26445   -0.00003
   20 Bend                     5     4     8               112.22008   -0.00003
   21 Bend                     9     1    10               112.70642    0.00000
   22 Torsion                  1     2     3     4        -179.89217    0.00001
   23 Torsion                  1     2     3     7           0.09282    0.00000
   24 Torsion                  2     3     4     5        -179.99945    0.00000
   25 Torsion                  2     3     4     8           0.00049    0.00000
   26 Torsion                  3     2     1     9          -0.00360   -0.00000
   27 Torsion                  3     2     1    10        -179.99451    0.00000
   28 Torsion                  4     3     2     6           0.09165    0.00000
   29 Torsion                  5     4     3     7           0.01556    0.00000
   30 Torsion                  6     2     1     9        -179.98760    0.00000
   31 Torsion                  6     2     1    10           0.02150    0.00001
   32 Torsion                  6     2     3     7        -179.92337   -0.00000
   33 Torsion                  7     3     4     8        -179.98451    0.00000



                         Geometry "geometry" -> "geometry"
                         ---------------------------------

 Output coordinates in angstroms (scale by  1.889725989 to convert to a.u.)

  No.       Tag          Charge          X              Y              Z
 ---- ---------------- ---------- -------------- -------------- --------------
    1 C                    6.0000    -0.88784448     1.43184473    -0.00048408
    2 C                    6.0000    -1.04278803     0.12177551     0.00117262
    3 C                    6.0000     0.00997070    -0.89188114     0.00027008
    4 C                    6.0000    -0.27627692    -2.17619385     0.00002959
    5 F                    9.0000     0.66989099    -3.10359866    -0.00077578
    6 H                    1.0000    -2.06121188    -0.22941712     0.00316548
    7 H                    1.0000     1.03821343    -0.58339841    -0.00045217
    8 H                    1.0000    -1.26121334    -2.60146930     0.00043874
    9 Cl                  17.0000     0.64657888     2.24427598    -0.00410094
   10 H                    1.0000    -1.71494227     2.11107944     0.00043373

      Atomic Mass 
      ----------- 

      C                 12.000000
      F                 18.998400
      H                  1.007825
      Cl                34.968850


 Effective nuclear repulsion energy (a.u.)     250.5418326150

            Nuclear Dipole moment (a.u.) 
            ----------------------------
        X                 Y               Z
 ---------------- ---------------- ----------------
    -0.3022172861    -0.3205546529    -0.1269571190


                Final and change from initial internal coordinates
                --------------------------------------------------



                                Z-matrix (autoz)
                                -------- 

 Units are Angstrom for bonds and degrees for angles

      Type          Name      I     J     K     L     M      Value       Change
      ----------- --------  ----- ----- ----- ----- ----- ---------- ----------
    1 Stretch                  1     2                       1.31920   -0.01765
    2 Stretch                  1     9                       1.73624    0.02324
    3 Stretch                  1    10                       1.07026   -0.01317
    4 Stretch                  2     3                       1.46144    0.01680
    5 Stretch                  2     6                       1.07728   -0.01165
    6 Stretch                  3     4                       1.31583   -0.01787
    7 Stretch                  3     7                       1.07352   -0.01336
    8 Stretch                  4     5                       1.32488   -0.02081
    9 Stretch                  4     8                       1.07283   -0.00740
   10 Bend                     1     2     3               127.17073    0.98177
   11 Bend                     1     2     6               115.77140   -1.53946
   12 Bend                     2     1     9               124.64506   -1.48259
   13 Bend                     2     1    10               122.64852    0.06848
   14 Bend                     2     3     4               121.35122   -1.74319
   15 Bend                     2     3     7               119.38432    0.49044
   16 Bend                     3     2     6               117.05787    0.55769
   17 Bend                     3     4     5               121.86151    0.65932
   18 Bend                     3     4     8               125.91841   -1.80281
   19 Bend                     4     3     7               119.26445    1.25275
   20 Bend                     5     4     8               112.22008    1.14349
   21 Bend                     9     1    10               112.70642    1.41412
   22 Torsion                  1     2     3     4        -179.89217    0.28739
   23 Torsion                  1     2     3     7           0.09282    0.27475
   24 Torsion                  2     3     4     5        -179.99945   -0.00049
   25 Torsion                  2     3     4     8           0.00049    0.02084
   26 Torsion                  3     2     1     9          -0.00360    0.02755
   27 Torsion                  3     2     1    10        -179.99451    0.00686
   28 Torsion                  4     3     2     6           0.09165    0.27194
   29 Torsion                  5     4     3     7           0.01556    0.01214
   30 Torsion                  6     2     1     9        -179.98760    0.04281
   31 Torsion                  6     2     1    10           0.02150    0.02212
   32 Torsion                  6     2     3     7        -179.92337    0.25930
   33 Torsion                  7     3     4     8        -179.98451    0.03348

 ==============================================================================
                                internuclear distances
 ------------------------------------------------------------------------------
       center one      |      center two      | atomic units |  angstroms
 ------------------------------------------------------------------------------
    2 C                |   1 C                |     2.49293  |     1.31920
    3 C                |   2 C                |     2.76172  |     1.46144
    4 C                |   3 C                |     2.48655  |     1.31583
    5 F                |   4 C                |     2.50367  |     1.32488
    6 H                |   2 C                |     2.03576  |     1.07728
    7 H                |   3 C                |     2.02866  |     1.07352
    8 H                |   4 C                |     2.02735  |     1.07283
    9 Cl               |   1 C                |     3.28101  |     1.73624
   10 H                |   1 C                |     2.02249  |     1.07026
 ------------------------------------------------------------------------------
                         number of included internuclear distances:          9
 ==============================================================================



 ==============================================================================
                                 internuclear angles
 ------------------------------------------------------------------------------
        center 1       |       center 2       |       center 3       |  degrees
 ------------------------------------------------------------------------------
    2 C                |   1 C                |   9 Cl               |   124.65
    2 C                |   1 C                |  10 H                |   122.65
    9 Cl               |   1 C                |  10 H                |   112.71
    1 C                |   2 C                |   3 C                |   127.17
    1 C                |   2 C                |   6 H                |   115.77
    3 C                |   2 C                |   6 H                |   117.06
    2 C                |   3 C                |   4 C                |   121.35
    2 C                |   3 C                |   7 H                |   119.38
    4 C                |   3 C                |   7 H                |   119.26
    3 C                |   4 C                |   5 F                |   121.86
    3 C                |   4 C                |   8 H                |   125.92
    5 F                |   4 C                |   8 H                |   112.22
 ------------------------------------------------------------------------------
                            number of included internuclear angles:         12
 ==============================================================================




 Task  times  cpu:      165.6s     wall:      183.0s
 Summary of allocated global arrays
-----------------------------------
  No active global arrays



                         GA Statistics for process    0
                         ------------------------------

       create   destroy   get      put      acc     scatter   gather  read&inc
calls: 1.08e+04 1.08e+04 1.00e+06 1.64e+05 5.00e+05    0        0     1129     
number of processes/call 1.00e+00 1.00e+00 1.00e+00 0.00e+00 0.00e+00
bytes total:             2.78e+09 2.10e+09 2.03e+08 0.00e+00 0.00e+00 9.03e+03
bytes remote:            0.00e+00 0.00e+00 0.00e+00 0.00e+00 0.00e+00 0.00e+00
Max memory consumed for GA by this process: 1137888 bytes
MA_summarize_allocated_blocks: starting scan ...
MA_summarize_allocated_blocks: scan completed: 0 heap blocks, 0 stack blocks
MA usage statistics:

	allocation statistics:
					      heap	     stack
					      ----	     -----
	current number of blocks	         0	         0
	maximum number of blocks	        18	        28
	current total bytes		         0	         0
	maximum total bytes		     80136	  33013352
	maximum total K-bytes		        81	     33014
	maximum total M-bytes		         1	        34


                                NWChem Input Module
                                -------------------





                                     CITATION
                                     --------
                Please cite the following reference when publishing
                           results obtained with NWChem:

                 M. Valiev, E.J. Bylaska, N. Govind, K. Kowalski,
              T.P. Straatsma, H.J.J. van Dam, D. Wang, J. Nieplocha,
                        E. Apra, T.L. Windus, W.A. de Jong
                 "NWChem: a comprehensive and scalable open-source
                  solution for large scale molecular simulations"
                      Comput. Phys. Commun. 181, 1477 (2010)
                           doi:10.1016/j.cpc.2010.04.018

                                      AUTHORS
                                      -------
          E. Apra, E. J. Bylaska, W. A. de Jong, N. Govind, K. Kowalski,
       T. P. Straatsma, M. Valiev, H. J. J. van Dam, D. Wang, T. L. Windus,
        J. Hammond, J. Autschbach, K. Bhaskaran-Nair, J. Brabec, K. Lopata,
       S. A. Fischer, S. Krishnamoorthy, W. Ma, M. Klemm, O. Villa, Y. Chen,
    V. Anisimov, F. Aquino, S. Hirata, M. T. Hackler, T. Risthaus, M. Malagoli,
       A. Marenich, A. Otero-de-la-Roza, J. Mullin, P. Nichols, R. Peverati,
     J. Pittner, Y. Zhao, P.-D. Fan, A. Fonari, M. Williamson, R. J. Harrison,
       J. R. Rehr, M. Dupuis, D. Silverstein, D. M. A. Smith, J. Nieplocha,
        V. Tipparaju, M. Krishnan, B. E. Van Kuiken, A. Vazquez-Mayagoitia,
        L. Jensen, M. Swart, Q. Wu, T. Van Voorhis, A. A. Auer, M. Nooijen,
      L. D. Crosby, E. Brown, G. Cisneros, G. I. Fann, H. Fruchtl, J. Garza,
        K. Hirao, R. A. Kendall, J. A. Nichols, K. Tsemekhman, K. Wolinski,
     J. Anchell, D. E. Bernholdt, P. Borowski, T. Clark, D. Clerc, H. Dachsel,
   M. J. O. Deegan, K. Dyall, D. Elwood, E. Glendening, M. Gutowski, A. C. Hess,
         J. Jaffe, B. G. Johnson, J. Ju, R. Kobayashi, R. Kutteh, Z. Lin,
   R. Littlefield, X. Long, B. Meng, T. Nakajima, S. Niu, L. Pollack, M. Rosing,
   K. Glaesemann, G. Sandrone, M. Stave, H. Taylor, G. Thomas, J. H. van Lenthe,
                               A. T. Wong, Z. Zhang.

 Total times  cpu:      165.6s     wall:      183.0s
