 argument  1 = mol3.nw



============================== echo of input deck ==============================
echo

start molecule

title "mol3"
charge 0

geometry units angstroms print xyz autosym
   C       -0.55001        2.91495       -0.10940
   C        0.42778        2.00927       -0.00974
   C        1.84084        2.25073       -0.19180
   C        2.76638        1.29740       -0.06922
   F        2.45963        0.02289        0.23725
   H        0.14323        0.98561        0.23206
   H        2.16719        3.25683       -0.44069
   H        3.83230        1.42314       -0.19417
  Cl       -0.35290        4.57683       -0.47553
   H       -1.59332        2.66418        0.04028
end

basis
  * library 6-31G*
end

task scf optimize
================================================================================


                                         
                                         


              Northwest Computational Chemistry Package (NWChem) 6.6
              ------------------------------------------------------


                    Environmental Molecular Sciences Laboratory
                       Pacific Northwest National Laboratory
                                Richland, WA 99352

                              Copyright (c) 1994-2015
                       Pacific Northwest National Laboratory
                            Battelle Memorial Institute

             NWChem is an open-source computational chemistry package
                        distributed under the terms of the
                      Educational Community License (ECL) 2.0
             A copy of the license is included with this distribution
                              in the LICENSE.TXT file

                                  ACKNOWLEDGMENT
                                  --------------

            This software and its documentation were developed at the
            EMSL at Pacific Northwest National Laboratory, a multiprogram
            national laboratory, operated for the U.S. Department of Energy
            by Battelle under Contract Number DE-AC05-76RL01830. Support
            for this work was provided by the Department of Energy Office
            of Biological and Environmental Research, Office of Basic
            Energy Sciences, and the Office of Advanced Scientific Computing.


           Job information
           ---------------

    hostname        = evandell
    program         = nwchem
    date            = Thu Dec  1 15:01:34 2016

    compiled        = Mon_Feb_15_08:24:17_2016
    source          = /build/nwchem-MF0R1k/nwchem-6.6+r27746
    nwchem branch   = 6.6
    nwchem revision = 27746
    ga revision     = 10594
    input           = mol3.nw
    prefix          = molecule.
    data base       = ./molecule.db
    status          = startup
    nproc           =        1
    time left       =     -1s



           Memory information
           ------------------

    heap     =   13107196 doubles =    100.0 Mbytes
    stack    =   13107201 doubles =    100.0 Mbytes
    global   =   26214400 doubles =    200.0 Mbytes (distinct from heap & stack)
    total    =   52428797 doubles =    400.0 Mbytes
    verify   = yes
    hardfail = no 


           Directory information
           ---------------------

  0 permanent = .
  0 scratch   = .




                                NWChem Input Module
                                -------------------


                                       mol3
                                       ----

 Scaling coordinates for geometry "geometry" by  1.889725989
 (inverse scale =  0.529177249)

 C1  symmetry detected

          ------
          auto-z
          ------


                             Geometry "geometry" -> ""
                             -------------------------

 Output coordinates in angstroms (scale by  1.889725989 to convert to a.u.)

  No.       Tag          Charge          X              Y              Z
 ---- ---------------- ---------- -------------- -------------- --------------
    1 C                    6.0000    -0.91216312     1.16609829    -0.00199219
    2 C                    6.0000    -0.69759231    -0.15307263    -0.00500884
    3 C                    6.0000     0.58863553    -0.81171085    -0.00600664
    4 C                    6.0000     0.72968059    -2.13857623    -0.00123411
    5 F                    9.0000    -0.32096749    -2.98028983     0.00597642
    6 H                    1.0000    -1.57053621    -0.80520852    -0.00686963
    7 H                    1.0000     1.48543330    -0.19818247    -0.01095138
    8 H                    1.0000     1.66431127    -2.68086201    -0.00160160
    9 Cl                  17.0000     0.29209469     2.38449314     0.00308748
   10 H                    1.0000    -1.90747479     1.59404662    -0.00140161

      Atomic Mass 
      ----------- 

      C                 12.000000
      F                 18.998400
      H                  1.007825
      Cl                34.968850


 Effective nuclear repulsion energy (a.u.)     252.6043430939

            Nuclear Dipole moment (a.u.) 
            ----------------------------
        X                 Y               Z
 ---------------- ---------------- ----------------
    -0.0000000000     0.0000000000     0.0000000000



                                Z-matrix (autoz)
                                -------- 

 Units are Angstrom for bonds and degrees for angles

      Type          Name      I     J     K     L     M      Value
      ----------- --------  ----- ----- ----- ----- ----- ----------
    1 Stretch                  1     2                       1.33651
    2 Stretch                  1     9                       1.71311
    3 Stretch                  1    10                       1.08341
    4 Stretch                  2     3                       1.44506
    5 Stretch                  2     6                       1.08964
    6 Stretch                  3     4                       1.33435
    7 Stretch                  3     7                       1.08659
    8 Stretch                  4     5                       1.34625
    9 Stretch                  4     8                       1.08056
   10 Bend                     1     2     3               126.35418
   11 Bend                     1     2     6               117.52325
   12 Bend                     2     1     9               126.09594
   13 Bend                     2     1    10               122.50454
   14 Bend                     2     3     4               123.18291
   15 Bend                     2     3     7               118.50697
   16 Bend                     3     2     6               116.12257
   17 Bend                     3     4     5               122.63235
   18 Bend                     3     4     8               126.19027
   19 Bend                     4     3     7               118.31011
   20 Bend                     5     4     8               111.17736
   21 Bend                     9     1    10               111.39949
   22 Torsion                  1     2     3     4         179.59781
   23 Torsion                  1     2     3     7          -0.40668
   24 Torsion                  2     3     4     5          -0.05189
   25 Torsion                  2     3     4     8        -179.99279
   26 Torsion                  3     2     1     9          -0.06990
   27 Torsion                  3     2     1    10        -179.99931
   28 Torsion                  4     3     2     6          -0.39911
   29 Torsion                  5     4     3     7         179.95259
   30 Torsion                  6     2     1     9         179.92698
   31 Torsion                  6     2     1    10          -0.00242
   32 Torsion                  6     2     3     7         179.59640
   33 Torsion                  7     3     4     8           0.01169


            XYZ format geometry
            -------------------
    10
 geometry
 C                    -0.91216312     1.16609829    -0.00199219
 C                    -0.69759231    -0.15307263    -0.00500884
 C                     0.58863553    -0.81171085    -0.00600664
 C                     0.72968059    -2.13857623    -0.00123411
 F                    -0.32096749    -2.98028983     0.00597642
 H                    -1.57053621    -0.80520852    -0.00686963
 H                     1.48543330    -0.19818247    -0.01095138
 H                     1.66431127    -2.68086201    -0.00160160
 Cl                    0.29209469     2.38449314     0.00308748
 H                    -1.90747479     1.59404662    -0.00140161

 ==============================================================================
                                internuclear distances
 ------------------------------------------------------------------------------
       center one      |      center two      | atomic units |  angstroms
 ------------------------------------------------------------------------------
    2 C                |   1 C                |     2.52564  |     1.33651
    3 C                |   2 C                |     2.73076  |     1.44506
    4 C                |   3 C                |     2.52155  |     1.33435
    5 F                |   4 C                |     2.54405  |     1.34625
    6 H                |   2 C                |     2.05912  |     1.08964
    7 H                |   3 C                |     2.05337  |     1.08659
    8 H                |   4 C                |     2.04196  |     1.08056
    9 Cl               |   1 C                |     3.23731  |     1.71311
   10 H                |   1 C                |     2.04736  |     1.08341
 ------------------------------------------------------------------------------
                         number of included internuclear distances:          9
 ==============================================================================



 ==============================================================================
                                 internuclear angles
 ------------------------------------------------------------------------------
        center 1       |       center 2       |       center 3       |  degrees
 ------------------------------------------------------------------------------
    2 C                |   1 C                |   9 Cl               |   126.10
    2 C                |   1 C                |  10 H                |   122.50
    9 Cl               |   1 C                |  10 H                |   111.40
    1 C                |   2 C                |   3 C                |   126.35
    1 C                |   2 C                |   6 H                |   117.52
    3 C                |   2 C                |   6 H                |   116.12
    2 C                |   3 C                |   4 C                |   123.18
    2 C                |   3 C                |   7 H                |   118.51
    4 C                |   3 C                |   7 H                |   118.31
    3 C                |   4 C                |   5 F                |   122.63
    3 C                |   4 C                |   8 H                |   126.19
    5 F                |   4 C                |   8 H                |   111.18
 ------------------------------------------------------------------------------
                            number of included internuclear angles:         12
 ==============================================================================





 Summary of "ao basis" -> "" (cartesian)
 ------------------------------------------------------------------------------
       Tag                 Description            Shells   Functions and Types
 ---------------- ------------------------------  ------  ---------------------
 *                           6-31G*                   on all atoms 




                           NWChem Geometry Optimization
                           ----------------------------




                                       mol3


 maximum gradient threshold         (gmax) =   0.000450
 rms gradient threshold             (grms) =   0.000300
 maximum cartesian step threshold   (xmax) =   0.001800
 rms cartesian step threshold       (xrms) =   0.001200
 fixed trust radius                (trust) =   0.300000
 maximum step size to saddle      (sadstp) =   0.100000
 energy precision                  (eprec) =   1.0D-07
 maximum number of steps          (nptopt) =   20
 initial hessian option           (inhess) =    0
 line search option               (linopt) =    1
 hessian update option            (modupd) =    1
 saddle point option              (modsad) =    0
 initial eigen-mode to follow     (moddir) =    0
 initial variable to follow       (vardir) =    0
 follow first negative mode     (firstneg) =    T
 apply conjugacy                    (opcg) =    F
 source of zmatrix                         =   autoz   


          -------------------
          Energy Minimization
          -------------------


 Names of Z-matrix variables 
    1              2              3              4              5         
    6              7              8              9             10         
   11             12             13             14             15         
   16             17             18             19             20         
   21             22             23             24             25         
   26             27             28             29             30         
   31             32             33         

 Variables with the same non-blank name are constrained to be equal


 Using old Hessian from previous optimization

          --------
          Step   0
          --------


                         Geometry "geometry" -> "geometry"
                         ---------------------------------

 Output coordinates in angstroms (scale by  1.889725989 to convert to a.u.)

  No.       Tag          Charge          X              Y              Z
 ---- ---------------- ---------- -------------- -------------- --------------
    1 C                    6.0000    -0.91216312     1.16609829    -0.00199219
    2 C                    6.0000    -0.69759231    -0.15307263    -0.00500884
    3 C                    6.0000     0.58863553    -0.81171085    -0.00600664
    4 C                    6.0000     0.72968059    -2.13857623    -0.00123411
    5 F                    9.0000    -0.32096749    -2.98028983     0.00597642
    6 H                    1.0000    -1.57053621    -0.80520852    -0.00686963
    7 H                    1.0000     1.48543330    -0.19818247    -0.01095138
    8 H                    1.0000     1.66431127    -2.68086201    -0.00160160
    9 Cl                  17.0000     0.29209469     2.38449314     0.00308748
   10 H                    1.0000    -1.90747479     1.59404662    -0.00140161

      Atomic Mass 
      ----------- 

      C                 12.000000
      F                 18.998400
      H                  1.007825
      Cl                34.968850


 Effective nuclear repulsion energy (a.u.)     252.6043430939

            Nuclear Dipole moment (a.u.) 
            ----------------------------
        X                 Y               Z
 ---------------- ---------------- ----------------
    -0.0000000000     0.0000000000     0.0000000000

                      Basis "ao basis" -> "ao basis" (cartesian)
                      -----
  C (Carbon)
  ----------
            Exponent  Coefficients 
       -------------- ---------------------------------------------------------
  1 S  3.04752490E+03  0.001835
  1 S  4.57369510E+02  0.014037
  1 S  1.03948690E+02  0.068843
  1 S  2.92101550E+01  0.232184
  1 S  9.28666300E+00  0.467941
  1 S  3.16392700E+00  0.362312

  2 S  7.86827240E+00 -0.119332
  2 S  1.88128850E+00 -0.160854
  2 S  5.44249300E-01  1.143456

  3 P  7.86827240E+00  0.068999
  3 P  1.88128850E+00  0.316424
  3 P  5.44249300E-01  0.744308

  4 S  1.68714400E-01  1.000000

  5 P  1.68714400E-01  1.000000

  6 D  8.00000000E-01  1.000000

  F (Fluorine)
  ------------
            Exponent  Coefficients 
       -------------- ---------------------------------------------------------
  1 S  7.00171309E+03  0.001820
  1 S  1.05136609E+03  0.013916
  1 S  2.39285690E+02  0.068405
  1 S  6.73974453E+01  0.233186
  1 S  2.15199573E+01  0.471267
  1 S  7.40310130E+00  0.356619

  2 S  2.08479528E+01 -0.108507
  2 S  4.80830834E+00 -0.146452
  2 S  1.34406986E+00  1.128689

  3 P  2.08479528E+01  0.071629
  3 P  4.80830834E+00  0.345912
  3 P  1.34406986E+00  0.722470

  4 S  3.58151393E-01  1.000000

  5 P  3.58151393E-01  1.000000

  6 D  8.00000000E-01  1.000000

  H (Hydrogen)
  ------------
            Exponent  Coefficients 
       -------------- ---------------------------------------------------------
  1 S  1.87311370E+01  0.033495
  1 S  2.82539370E+00  0.234727
  1 S  6.40121700E-01  0.813757

  2 S  1.61277800E-01  1.000000

  Cl (Chlorine)
  -------------
            Exponent  Coefficients 
       -------------- ---------------------------------------------------------
  1 S  2.51801000E+04  0.001833
  1 S  3.78035000E+03  0.014034
  1 S  8.60474000E+02  0.069097
  1 S  2.42145000E+02  0.237452
  1 S  7.73349000E+01  0.483034
  1 S  2.62470000E+01  0.339856

  2 S  4.91765000E+02 -0.002297
  2 S  1.16984000E+02 -0.030714
  2 S  3.74153000E+01 -0.112528
  2 S  1.37834000E+01  0.045016
  2 S  5.45215000E+00  0.589353
  2 S  2.22588000E+00  0.465206

  3 P  4.91765000E+02  0.003989
  3 P  1.16984000E+02  0.030318
  3 P  3.74153000E+01  0.129880
  3 P  1.37834000E+01  0.327951
  3 P  5.45215000E+00  0.453527
  3 P  2.22588000E+00  0.252154

  4 S  3.18649000E+00 -0.251830
  4 S  1.14427000E+00  0.061589
  4 S  4.20377000E-01  1.060180

  5 P  3.18649000E+00 -0.014299
  5 P  1.14427000E+00  0.323572
  5 P  4.20377000E-01  0.743507

  6 S  1.42657000E-01  1.000000

  7 P  1.42657000E-01  1.000000

  8 D  7.50000000E-01  1.000000



 Summary of "ao basis" -> "ao basis" (cartesian)
 ------------------------------------------------------------------------------
       Tag                 Description            Shells   Functions and Types
 ---------------- ------------------------------  ------  ---------------------
 C                           6-31G*                  6       15   3s2p1d
 F                           6-31G*                  6       15   3s2p1d
 H                           6-31G*                  2        2   2s
 Cl                          6-31G*                  8       19   4s3p1d


                                 NWChem SCF Module
                                 -----------------


                                       mol3



  ao basis        = "ao basis"
  functions       =   102
  atoms           =    10
  closed shells   =    27
  open shells     =     0
  charge          =   0.00
  wavefunction    = RHF 
  input vectors   = atomic
  output vectors  = ./molecule.movecs
  use symmetry    = F
  symmetry adapt  = F


 Summary of "ao basis" -> "ao basis" (cartesian)
 ------------------------------------------------------------------------------
       Tag                 Description            Shells   Functions and Types
 ---------------- ------------------------------  ------  ---------------------
 C                           6-31G*                  6       15   3s2p1d
 F                           6-31G*                  6       15   3s2p1d
 H                           6-31G*                  2        2   2s
 Cl                          6-31G*                  8       19   4s3p1d



 Forming initial guess at       0.1s


      Superposition of Atomic Density Guess
      -------------------------------------

 Sum of atomic energies:        -711.45686149

      Non-variational initial energy
      ------------------------------

 Total energy =    -714.350884
 1-e energy   =   -1480.654124
 2-e energy   =     513.698896
 HOMO         =      -0.220058
 LUMO         =       0.006295


 Starting SCF solution at       0.7s



 ----------------------------------------------
         Quadratically convergent ROHF

 Convergence threshold     :          1.000E-04
 Maximum no. of iterations :           30
 Final Fock-matrix accuracy:          1.000E-07
 ----------------------------------------------


 Integral file          = ./molecule.aoints.0
 Record size in doubles =    65536    No. of integs per rec  =    43688
 Max. records in memory =        0    Max. records in file   =  1613236
 No. of bits per label  =        8    No. of bits per value  =       64


 #quartets = 4.503D+05 #integrals = 9.134D+06 #direct =  0.0% #cached =100.0%


              iter       energy          gnorm     gmax       time
             ----- ------------------- --------- --------- --------
                 1     -712.5863757253  1.01D+00  1.63D-01      2.4
                 2     -712.6545632331  4.72D-01  9.73D-02      2.5
                 3     -712.6680526775  2.53D-02  7.10D-03      2.8
                 4     -712.6681402957  2.87D-04  5.33D-05      3.4
                 5     -712.6681403054  4.33D-06  1.13D-06      3.9


       Final RHF  results 
       ------------------ 

         Total SCF energy =   -712.668140305446
      One-electron energy =  -1483.200866345635
      Two-electron energy =    517.928382946245
 Nuclear repulsion energy =    252.604343093944

        Time for solution =      3.3s


             Final eigenvalues
             -----------------

              1      
    1 -104.8308
    2  -26.3184
    3  -11.3384
    4  -11.3000
    5  -11.2611
    6  -11.2523
    7  -10.5650
    8   -8.0344
    9   -8.0310
   10   -8.0310
   11   -1.6277
   12   -1.1697
   13   -1.0905
   14   -0.9972
   15   -0.8555
   16   -0.7693
   17   -0.7438
   18   -0.6914
   19   -0.6907
   20   -0.6444
   21   -0.5985
   22   -0.5716
   23   -0.5240
   24   -0.5205
   25   -0.4540
   26   -0.4356
   27   -0.3252
   28    0.1092
   29    0.2206
   30    0.2438
   31    0.2534
   32    0.2678
   33    0.3043
   34    0.3112
   35    0.3737
   36    0.4819
   37    0.5110

                       ROHF Final Molecular Orbital Analysis
                       -------------------------------------

 Vector   12  Occ=2.000000D+00  E=-1.169651D+00
              MO Center= -1.8D-01,  1.5D+00,  1.0D-04, r^2= 1.8D+00
   Bfn.  Coefficient  Atom+Function         Bfn.  Coefficient  Atom+Function  
  ----- ------------  ---------------      ----- ------------  ---------------
    87      0.516267   9 Cl s                83     -0.265788   9 Cl s         
     2      0.225152   1 C  s                91      0.186217   9 Cl s         
     6      0.172683   1 C  s                17      0.153936   2 C  s         

 Vector   13  Occ=2.000000D+00  E=-1.090542D+00
              MO Center=  2.7D-01, -4.5D-01, -2.9D-03, r^2= 3.2D+00
   Bfn.  Coefficient  Atom+Function         Bfn.  Coefficient  Atom+Function  
  ----- ------------  ---------------      ----- ------------  ---------------
    87      0.312473   9 Cl s                32     -0.273430   3 C  s         
    47     -0.205041   4 C  s                36     -0.196658   3 C  s         
    17     -0.182888   2 C  s                83     -0.158602   9 Cl s         

 Vector   14  Occ=2.000000D+00  E=-9.971677D-01
              MO Center= -1.5D-01, -1.1D-01, -2.1D-03, r^2= 3.9D+00
   Bfn.  Coefficient  Atom+Function         Bfn.  Coefficient  Atom+Function  
  ----- ------------  ---------------      ----- ------------  ---------------
    87      0.307655   9 Cl s                17     -0.224844   2 C  s         
    47      0.216537   4 C  s                21     -0.185524   2 C  s         
     2     -0.183867   1 C  s                91      0.162241   9 Cl s         
     6     -0.159790   1 C  s                83     -0.153673   9 Cl s         
     4      0.150474   1 C  py        

 Vector   15  Occ=2.000000D+00  E=-8.554973D-01
              MO Center=  2.1D-02, -1.1D+00, -6.0D-04, r^2= 4.7D+00
   Bfn.  Coefficient  Atom+Function         Bfn.  Coefficient  Atom+Function  
  ----- ------------  ---------------      ----- ------------  ---------------
    63      0.264566   5 F  px               47      0.202610   4 C  s         
     2      0.176870   1 C  s                 6      0.169793   1 C  s         
    67      0.169425   5 F  px               32     -0.164142   3 C  s         
    51      0.155425   4 C  s                49     -0.151837   4 C  py        

 Vector   16  Occ=2.000000D+00  E=-7.693499D-01
              MO Center= -1.9D-01, -7.4D-01, -1.2D-03, r^2= 4.8D+00
   Bfn.  Coefficient  Atom+Function         Bfn.  Coefficient  Atom+Function  
  ----- ------------  ---------------      ----- ------------  ---------------
    64      0.219804   5 F  py               63      0.218117   5 F  px        
    33     -0.192227   3 C  px                6     -0.168804   1 C  s         
    87      0.161284   9 Cl s                17      0.155162   2 C  s         
    49     -0.153614   4 C  py        

 Vector   17  Occ=2.000000D+00  E=-7.437882D-01
              MO Center=  2.0D-02, -1.6D+00,  7.1D-04, r^2= 4.2D+00
   Bfn.  Coefficient  Atom+Function         Bfn.  Coefficient  Atom+Function  
  ----- ------------  ---------------      ----- ------------  ---------------
    64      0.347273   5 F  py               68      0.235973   5 F  py        
    63     -0.207009   5 F  px               34     -0.191987   3 C  py        
    49      0.192708   4 C  py               48     -0.190023   4 C  px        

 Vector   18  Occ=2.000000D+00  E=-6.913816D-01
              MO Center= -1.5D-01, -1.0D+00, -6.7D-03, r^2= 4.3D+00
   Bfn.  Coefficient  Atom+Function         Bfn.  Coefficient  Atom+Function  
  ----- ------------  ---------------      ----- ------------  ---------------
    18      0.233350   2 C  px               64      0.226499   5 F  py        
    48     -0.206618   4 C  px               63      0.207048   5 F  px        
    34      0.176479   3 C  py               76     -0.172393   6 H  s         
    89     -0.157352   9 Cl py               68      0.155393   5 F  py        

 Vector   19  Occ=2.000000D+00  E=-6.906883D-01
              MO Center= -2.1D-01, -2.9D+00,  1.0D-02, r^2= 7.0D-01
   Bfn.  Coefficient  Atom+Function         Bfn.  Coefficient  Atom+Function  
  ----- ------------  ---------------      ----- ------------  ---------------
    65      0.617402   5 F  pz               69      0.433907   5 F  pz        
    50      0.153779   4 C  pz        

 Vector   20  Occ=2.000000D+00  E=-6.443730D-01
              MO Center= -5.8D-01, -3.5D-01, -5.5D-04, r^2= 4.6D+00
   Bfn.  Coefficient  Atom+Function         Bfn.  Coefficient  Atom+Function  
  ----- ------------  ---------------      ----- ------------  ---------------
    19     -0.290810   2 C  py                4      0.280836   1 C  py        
    63      0.265784   5 F  px               64     -0.228308   5 F  py        
     3     -0.189211   1 C  px               67      0.187133   5 F  px        
    68     -0.168111   5 F  py              101      0.156428  10 H  s         
    88     -0.153637   9 Cl px               36      0.150695   3 C  s         

 Vector   21  Occ=2.000000D+00  E=-5.985100D-01
              MO Center=  2.7D-01,  4.5D-01, -2.8D-03, r^2= 4.2D+00
   Bfn.  Coefficient  Atom+Function         Bfn.  Coefficient  Atom+Function  
  ----- ------------  ---------------      ----- ------------  ---------------
    89      0.274851   9 Cl py               33      0.257926   3 C  px        
    88      0.239030   9 Cl px                3     -0.231363   1 C  px        
    78      0.199269   7 H  s                91      0.166096   9 Cl s         
    37      0.153343   3 C  px               18     -0.152389   2 C  px        

 Vector   22  Occ=2.000000D+00  E=-5.716253D-01
              MO Center=  3.4D-01, -1.7D+00, -6.4D-04, r^2= 3.4D+00
   Bfn.  Coefficient  Atom+Function         Bfn.  Coefficient  Atom+Function  
  ----- ------------  ---------------      ----- ------------  ---------------
    64      0.280310   5 F  py               34      0.278607   3 C  py        
    49     -0.274864   4 C  py               63     -0.242809   5 F  px        
    68      0.211266   5 F  py               48      0.195563   4 C  px        
    80      0.196233   8 H  s                67     -0.185904   5 F  px        
    81      0.173203   8 H  s                19     -0.170235   2 C  py        

 Vector   23  Occ=2.000000D+00  E=-5.240178D-01
              MO Center= -2.9D-01,  3.6D-01, -1.3D-03, r^2= 4.0D+00
   Bfn.  Coefficient  Atom+Function         Bfn.  Coefficient  Atom+Function  
  ----- ------------  ---------------      ----- ------------  ---------------
    89      0.337444   9 Cl py               18      0.292558   2 C  px        
    33     -0.244607   3 C  px               22      0.213763   2 C  px        
    76     -0.198080   6 H  s                 3     -0.179572   1 C  px        
     7     -0.161914   1 C  px        

 Vector   24  Occ=2.000000D+00  E=-5.205214D-01
              MO Center= -1.1D-01,  1.6D+00, -1.2D-03, r^2= 2.6D+00
   Bfn.  Coefficient  Atom+Function         Bfn.  Coefficient  Atom+Function  
  ----- ------------  ---------------      ----- ------------  ---------------
    90      0.540797   9 Cl pz               94      0.271982   9 Cl pz        
     5      0.252858   1 C  pz               86     -0.209819   9 Cl pz        
    20      0.189357   2 C  pz                9      0.173277   1 C  pz        

 Vector   25  Occ=2.000000D+00  E=-4.540301D-01
              MO Center=  1.3D-01,  2.2D+00,  2.3D-03, r^2= 1.8D+00
   Bfn.  Coefficient  Atom+Function         Bfn.  Coefficient  Atom+Function  
  ----- ------------  ---------------      ----- ------------  ---------------
    88      0.536094   9 Cl px               89     -0.443363   9 Cl py        
    92      0.295527   9 Cl px               93     -0.262447   9 Cl py        
    84     -0.205905   9 Cl px               85      0.170146   9 Cl py        

 Vector   26  Occ=2.000000D+00  E=-4.356474D-01
              MO Center=  2.2D-01, -4.0D-02, -2.0D-03, r^2= 4.2D+00
   Bfn.  Coefficient  Atom+Function         Bfn.  Coefficient  Atom+Function  
  ----- ------------  ---------------      ----- ------------  ---------------
    90      0.396364   9 Cl pz               35     -0.303881   3 C  pz        
    94      0.233233   9 Cl pz               20     -0.227829   2 C  pz        
    39     -0.224887   3 C  pz               50     -0.225412   4 C  pz        
    24     -0.158023   2 C  pz               65      0.156623   5 F  pz        
    86     -0.151803   9 Cl pz        

 Vector   27  Occ=2.000000D+00  E=-3.251561D-01
              MO Center= -7.6D-02, -1.3D-01, -2.3D-03, r^2= 4.1D+00
   Bfn.  Coefficient  Atom+Function         Bfn.  Coefficient  Atom+Function  
  ----- ------------  ---------------      ----- ------------  ---------------
     5      0.304553   1 C  pz               50     -0.286205   4 C  pz        
    90     -0.272929   9 Cl pz                9      0.267136   1 C  pz        
    20      0.242143   2 C  pz               24      0.225251   2 C  pz        
    35     -0.224047   3 C  pz               39     -0.218958   3 C  pz        
    54     -0.218725   4 C  pz               94     -0.201601   9 Cl pz        

 Vector   28  Occ=0.000000D+00  E= 1.091522D-01
              MO Center= -9.9D-02, -4.1D-01, -3.1D-03, r^2= 4.1D+00
   Bfn.  Coefficient  Atom+Function         Bfn.  Coefficient  Atom+Function  
  ----- ------------  ---------------      ----- ------------  ---------------
     9      0.537948   1 C  pz               54      0.472116   4 C  pz        
    24     -0.406727   2 C  pz               50      0.334286   4 C  pz        
     5      0.319103   1 C  pz               39     -0.297095   3 C  pz        
    20     -0.236339   2 C  pz               35     -0.189625   3 C  pz        
    94     -0.175288   9 Cl pz        

 Vector   29  Occ=0.000000D+00  E= 2.205584D-01
              MO Center= -2.4D-01,  2.0D+00,  1.2D-03, r^2= 3.5D+00
   Bfn.  Coefficient  Atom+Function         Bfn.  Coefficient  Atom+Function  
  ----- ------------  ---------------      ----- ------------  ---------------
     6      1.668691   1 C  s                91     -0.938565   9 Cl s         
    92      0.871414   9 Cl px               93      0.808198   9 Cl py        
     8      0.799167   1 C  py              102     -0.685515  10 H  s         
    36     -0.369263   3 C  s                 7      0.326333   1 C  px        
     4      0.254083   1 C  py               21      0.254915   2 C  s         

 Vector   30  Occ=0.000000D+00  E= 2.438166D-01
              MO Center= -4.4D-01, -3.2D-01, -4.9D-03, r^2= 7.5D+00
   Bfn.  Coefficient  Atom+Function         Bfn.  Coefficient  Atom+Function  
  ----- ------------  ---------------      ----- ------------  ---------------
   102      1.168256  10 H  s                77      1.074968   6 H  s         
    21     -1.056607   2 C  s                81     -1.000665   8 H  s         
    51      0.872755   4 C  s                79     -0.720479   7 H  s         
     7      0.700629   1 C  px               36      0.514464   3 C  s         
     6     -0.473130   1 C  s                52      0.432326   4 C  px        

 Vector   31  Occ=0.000000D+00  E= 2.534401D-01
              MO Center=  2.4D-02, -5.7D-01, -3.1D-03, r^2= 3.6D+00
   Bfn.  Coefficient  Atom+Function         Bfn.  Coefficient  Atom+Function  
  ----- ------------  ---------------      ----- ------------  ---------------
    39     -0.805499   3 C  pz               24      0.767490   2 C  pz        
    54      0.581247   4 C  pz                9     -0.533868   1 C  pz        
    35     -0.324645   3 C  pz               20      0.305522   2 C  pz        
    50      0.234179   4 C  pz                5     -0.184516   1 C  pz        

 Vector   32  Occ=0.000000D+00  E= 2.678091D-01
              MO Center=  3.9D-01, -8.3D-01, -5.0D-03, r^2= 7.6D+00
   Bfn.  Coefficient  Atom+Function         Bfn.  Coefficient  Atom+Function  
  ----- ------------  ---------------      ----- ------------  ---------------
    81      1.252708   8 H  s                79      1.119847   7 H  s         
    51     -0.932291   4 C  s               102      0.915942  10 H  s         
    77      0.877981   6 H  s                 6     -0.680521   1 C  s         
    52     -0.640125   4 C  px               21     -0.610684   2 C  s         
    36     -0.592722   3 C  s                38     -0.553112   3 C  py        

 Vector   33  Occ=0.000000D+00  E= 3.042791D-01
              MO Center=  1.5D+00, -1.6D+00, -5.2D-03, r^2= 4.4D+00
   Bfn.  Coefficient  Atom+Function         Bfn.  Coefficient  Atom+Function  
  ----- ------------  ---------------      ----- ------------  ---------------
    81      1.664509   8 H  s                79     -1.532409   7 H  s         
    51     -1.444346   4 C  s                37      1.071419   3 C  px        
    53      0.629470   4 C  py               52     -0.613013   4 C  px        
    36      0.599726   3 C  s                21      0.353534   2 C  s         
    38      0.317992   3 C  py              102      0.304151  10 H  s         

 Vector   34  Occ=0.000000D+00  E= 3.111707D-01
              MO Center= -5.8D-01, -4.3D-01, -3.8D-03, r^2= 6.8D+00
   Bfn.  Coefficient  Atom+Function         Bfn.  Coefficient  Atom+Function  
  ----- ------------  ---------------      ----- ------------  ---------------
    21      1.278655   2 C  s               102      1.275164  10 H  s         
    36     -1.188592   3 C  s                77     -1.190118   6 H  s         
     7      0.914207   1 C  px               79      0.828481   7 H  s         
    52      0.691603   4 C  px               66      0.644761   5 F  s         
     6     -0.631277   1 C  s                53      0.501045   4 C  py        

 Vector   35  Occ=0.000000D+00  E= 3.737118D-01
              MO Center= -3.1D-01, -7.7D-01, -3.8D-03, r^2= 7.0D+00
   Bfn.  Coefficient  Atom+Function         Bfn.  Coefficient  Atom+Function  
  ----- ------------  ---------------      ----- ------------  ---------------
    77      1.675685   6 H  s                36     -1.469004   3 C  s         
    22      1.388191   2 C  px                7     -1.324493   1 C  px        
   102     -1.256241  10 H  s                79      0.916881   7 H  s         
    23      0.904695   2 C  py               66      0.828486   5 F  s         
    52      0.788947   4 C  px               38     -0.690550   3 C  py        

 Vector   36  Occ=0.000000D+00  E= 4.818620D-01
              MO Center=  1.4D-01, -3.9D-02, -4.0D-03, r^2= 5.4D+00
   Bfn.  Coefficient  Atom+Function         Bfn.  Coefficient  Atom+Function  
  ----- ------------  ---------------      ----- ------------  ---------------
    22      2.238738   2 C  px               37      2.164351   3 C  px        
    23     -2.025702   2 C  py                6      1.550914   1 C  s         
    38     -1.518144   3 C  py                8     -1.453748   1 C  py        
    36     -1.248104   3 C  s                53     -0.933621   4 C  py        
    51     -0.768336   4 C  s                92     -0.615232   9 Cl px        

 Vector   37  Occ=0.000000D+00  E= 5.109556D-01
              MO Center= -4.8D-01,  7.3D-01, -7.7D-04, r^2= 5.2D+00
   Bfn.  Coefficient  Atom+Function         Bfn.  Coefficient  Atom+Function  
  ----- ------------  ---------------      ----- ------------  ---------------
    21      4.511611   2 C  s                 6     -2.679694   1 C  s         
     8      2.400923   1 C  py               23      1.515815   2 C  py        
    37      1.465084   3 C  px               22      1.256635   2 C  px        
    36     -1.165581   3 C  s                 7     -1.125252   1 C  px        
    52     -1.083540   4 C  px              102     -0.739632  10 H  s         


------------------------------------------------------------
EAF file 0: "./molecule.aoints.0" size=110100480 bytes
------------------------------------------------------------
               write      read    awrite     aread      wait
               -----      ----    ------     -----      ----
     calls:      210        14         0      2926      2926
   data(b): 1.10e+08  7.34e+06  0.00e+00  1.53e+09
   time(s): 0.00e+00  0.00e+00  0.00e+00  0.00e+00  0.00e+00
rate(mb/s): 0.00e+00  0.00e+00
------------------------------------------------------------


 center of mass
 --------------
 x =   0.00513869 y =   0.02511133 z =   0.00052805

 moments of inertia (a.u.)
 ------------------
        1633.547503825572          -0.000000000001          -0.000000000000
          -0.000000000001         151.703650061633          -0.000000000000
          -0.000000000000          -0.000000000000        1785.237037049002

  Mulliken analysis of the total density
  --------------------------------------

    Atom       Charge   Shell Charges
 -----------   ------   -------------------------------------------------------
    1 C    6     6.32   2.00  0.66  1.93  0.58  1.08  0.08
    2 C    6     6.13   2.00  0.67  2.00  0.48  0.93  0.06
    3 C    6     6.28   2.00  0.66  2.02  0.51  1.03  0.06
    4 C    6     5.78   2.00  0.67  1.85  0.46  0.72  0.09
    5 F    9     9.37   2.00  0.98  3.29  0.86  2.12  0.12
    6 H    1     0.77   0.52  0.25
    7 H    1     0.76   0.52  0.25
    8 H    1     0.79   0.53  0.26
    9 Cl  17    17.02   2.00  2.00  5.98  1.35  3.57  0.58  1.49  0.05
   10 H    1     0.76   0.52  0.24

       Multipole analysis of the density wrt the origin
       ------------------------------------------------

     L   x y z        total         open         nuclear
     -   - - -        -----         ----         -------
     0   0 0 0     -0.000000      0.000000     54.000000

     1   1 0 0      0.125584      0.000000     -0.000000
     1   0 1 0     -0.265850      0.000000      0.000000
     1   0 0 1     -0.004772      0.000000      0.000000

     2   2 0 0    -26.712977      0.000000     95.149974
     2   1 1 0     -3.639788      0.000000    -14.475440
     2   1 0 1     -0.001079      0.000000     -0.007688
     2   0 2 0    -33.595334      0.000000    809.585682
     2   0 1 1      0.012037      0.000000      0.037012
     2   0 0 2    -32.568765      0.000000      0.003768


 Parallel integral file used     210 records with       0 large values

                              NWChem Gradients Module
                              -----------------------


                                       mol3


  wavefunction    =   RHF     



                         RHF ENERGY GRADIENTS

    atom               coordinates                        gradient
                 x          y          z           x          y          z
   1 C      -1.723738   2.203606  -0.003765    0.017708   0.021477   0.000017
   2 C      -1.318258  -0.289265  -0.009465    0.018708  -0.016788  -0.000039
   3 C       1.112360  -1.533911  -0.011351   -0.017435   0.021376  -0.000029
   4 C       1.378896  -4.041323  -0.002332    0.004082  -0.008111  -0.000058
   5 F      -0.606541  -5.631931   0.011294   -0.010534  -0.012129   0.000139
   6 H      -2.967883  -1.521623  -0.012982   -0.006847  -0.009382  -0.000035
   7 H       2.807062  -0.374511  -0.020695    0.006591   0.008424  -0.000068
   8 H       3.145092  -5.066095  -0.003027    0.005852  -0.005616   0.000029
   9 Cl      0.551979   4.506039   0.005834   -0.010599  -0.006045   0.000012
  10 H      -3.604605   3.012311  -0.002649   -0.007525   0.006793   0.000032

                 ----------------------------------------
                 |  Time  |  1-e(secs)   |  2-e(secs)   |
                 ----------------------------------------
                 |  CPU   |       0.01   |       5.74   |
                 ----------------------------------------
                 |  WALL  |       0.02   |       6.14   |
                 ----------------------------------------

@ Step       Energy      Delta E   Gmax     Grms     Xrms     Xmax   Walltime
@ ---- ---------------- -------- -------- -------- -------- -------- --------
@    0    -712.66814031  0.0D+00  0.02565  0.00796  0.00000  0.00000     10.5
                                                                    



                                Z-matrix (autoz)
                                -------- 

 Units are Angstrom for bonds and degrees for angles

      Type          Name      I     J     K     L     M      Value     Gradient
      ----------- --------  ----- ----- ----- ----- ----- ---------- ----------
    1 Stretch                  1     2                       1.33651    0.02200
    2 Stretch                  1     9                       1.71311   -0.01175
    3 Stretch                  1    10                       1.08341    0.00960
    4 Stretch                  2     3                       1.44506   -0.01198
    5 Stretch                  2     6                       1.08964    0.01110
    6 Stretch                  3     4                       1.33435    0.02565
    7 Stretch                  3     7                       1.08659    0.01020
    8 Stretch                  4     5                       1.34625    0.01581
    9 Stretch                  4     8                       1.08056    0.00788
   10 Bend                     1     2     3               126.35418   -0.00018
   11 Bend                     1     2     6               117.52325    0.00195
   12 Bend                     2     1     9               126.09594    0.00258
   13 Bend                     2     1    10               122.50454    0.00048
   14 Bend                     2     3     4               123.18291   -0.00059
   15 Bend                     2     3     7               118.50697   -0.00146
   16 Bend                     3     2     6               116.12257   -0.00177
   17 Bend                     3     4     5               122.63235    0.00189
   18 Bend                     3     4     8               126.19027    0.00009
   19 Bend                     4     3     7               118.31011    0.00205
   20 Bend                     5     4     8               111.17736   -0.00198
   21 Bend                     9     1    10               111.39949   -0.00306
   22 Torsion                  1     2     3     4         179.59781   -0.00003
   23 Torsion                  1     2     3     7          -0.40668   -0.00002
   24 Torsion                  2     3     4     5          -0.05189   -0.00003
   25 Torsion                  2     3     4     8        -179.99279    0.00001
   26 Torsion                  3     2     1     9          -0.06990   -0.00003
   27 Torsion                  3     2     1    10        -179.99931    0.00001
   28 Torsion                  4     3     2     6          -0.39911   -0.00002
   29 Torsion                  5     4     3     7         179.95259   -0.00003
   30 Torsion                  6     2     1     9         179.92698   -0.00003
   31 Torsion                  6     2     1    10          -0.00242    0.00000
   32 Torsion                  6     2     3     7         179.59640   -0.00002
   33 Torsion                  7     3     4     8           0.01169    0.00001

                                 NWChem SCF Module
                                 -----------------


                                       mol3



  ao basis        = "ao basis"
  functions       =   102
  atoms           =    10
  closed shells   =    27
  open shells     =     0
  charge          =   0.00
  wavefunction    = RHF 
  input vectors   = ./molecule.movecs
  output vectors  = ./molecule.movecs
  use symmetry    = F
  symmetry adapt  = F


 Summary of "ao basis" -> "ao basis" (cartesian)
 ------------------------------------------------------------------------------
       Tag                 Description            Shells   Functions and Types
 ---------------- ------------------------------  ------  ---------------------
 C                           6-31G*                  6       15   3s2p1d
 F                           6-31G*                  6       15   3s2p1d
 H                           6-31G*                  2        2   2s
 Cl                          6-31G*                  8       19   4s3p1d



 Forming initial guess at      10.5s


 Loading old vectors from job with title :

mol4


 Starting SCF solution at      10.6s



 ----------------------------------------------
         Quadratically convergent ROHF

 Convergence threshold     :          1.000E-04
 Maximum no. of iterations :           30
 Final Fock-matrix accuracy:          1.000E-07
 ----------------------------------------------


 Integral file          = ./molecule.aoints.0
 Record size in doubles =    65536    No. of integs per rec  =    43688
 Max. records in memory =        0    Max. records in file   =  1613023
 No. of bits per label  =        8    No. of bits per value  =       64


 #quartets = 4.528D+05 #integrals = 9.178D+06 #direct =  0.0% #cached =100.0%


              iter       energy          gnorm     gmax       time
             ----- ------------------- --------- --------- --------
                 1     -707.6021283737  4.10D+00  9.28D-01     11.7
                 2     -710.2449455810  2.83D+00  1.03D+00     12.3
                 3     -711.5560356752  3.74D+00  1.10D+00     12.8
                 4     -712.3011013318  2.48D+00  4.04D-01     13.2
                 5     -712.5713070936  1.03D+00  3.55D-01     13.7
                 6     -712.6638158867  2.66D-01  7.59D-02     13.9
                 7     -712.6703320927  2.48D-02  4.64D-03     14.5
  ga_iter_lsolve: convergence stagnant ... aborting solve
                 8     -774.4077319593  6.28D+02  1.40D+02     20.0
  Setting level-shift to  94.39 to force positive preconditioner
                 9     -886.0520759504  4.01D+02  1.40D+02     20.9
  Setting level-shift to 402.34 to force positive preconditioner
                10    -1005.0607295452  1.15D+03  4.23D+02     21.7
  Setting level-shift to ****** to force positive preconditioner
                11    -1594.9388038449  2.02D+03  6.65D+02     23.7
  Setting level-shift to ****** to force positive preconditioner
                12    -2767.7154314652  3.15D+03  1.48D+03     28.5
  Setting level-shift to ****** to force positive preconditioner
                13    -3663.4868195306  4.22D+03  2.13D+03     30.0
  Setting level-shift to ****** to force positive preconditioner
                14    -4491.1612022169  3.25D+03  1.28D+03     33.6
  Setting level-shift to 911.12 to force positive preconditioner
                15    -4740.0250518970  2.31D+03  8.75D+02     33.9
  Setting level-shift to 509.74 to force positive preconditioner
                16    -5229.2711323586  1.35D+03  5.97D+02     35.5
  Setting level-shift to 281.95 to force positive preconditioner
                17    -5604.7687175014  8.94D+02  2.79D+02     35.8
  Setting level-shift to 115.38 to force positive preconditioner
                18    -5780.9593713732  5.09D+02  2.99D+02     36.3
  Setting level-shift to  58.57 to force positive preconditioner
                19    -5871.3631437716  4.16D+02  1.84D+02     36.5
  Setting level-shift to  11.68 to force positive preconditioner
                20    -5889.1065806740  3.07D+02  1.28D+02     36.8
                21    -5894.8002733891  1.44D+02  8.33D+01     37.5
                22    -5896.6977581812  1.55D+02  7.81D+01     38.0
                23    -5897.4454109472  7.26D+01  4.64D+01     38.4
                24    -5897.8081318609  7.78D+01  3.35D+01     38.9
                25    -5898.0212087564  4.31D+01  2.73D+01     39.3
                26    -5898.1492126883  4.63D+01  1.89D+01     39.8
                27    -5898.2274137601  2.60D+01  1.63D+01     40.2
                28    -5898.2759444347  2.83D+01  1.13D+01     40.6
                29    -5898.3065035881  1.59D+01  9.85D+00     41.1
                30    -5898.3265089602  1.82D+01  7.05D+00     41.6

      Calculation failed to converge
      ------------------------------



       Final RHF  results 
       ------------------ 

         Total SCF energy =  -5898.326508960150
      One-electron energy =  -1233.872084325775
      Two-electron energy =  -4918.253638568188
 Nuclear repulsion energy =    253.799213933813

        Time for solution =     31.9s


             Final eigenvalues
             -----------------

              1      
    1 *********
    2 *********
    3 -796.6275
    4 -664.1567
    5 -402.8723
    6 -142.4153
    7  -96.4052
    8  -72.9657
    9  -60.6095
   10  -29.3801
   11  -24.3239
   12  -22.0071
   13  -21.5225
   14  -17.9490
   15  -15.1995
   16  -13.6504
   17  -10.8962
   18   -9.9061
   19   -7.8203
   20   -4.9555
   21   -3.2880
   22   -1.3680
   23   -0.4936
   24   -0.1703
   25    1.8030
   26    2.1231
   27    2.2835
   28    2.9228
   29    3.9848
   30    4.3896
   31    4.7718
   32    4.9764
   33    5.6809
   34    6.1439
   35    8.5852
   36    9.2760
   37    9.4765

                       ROHF Final Molecular Orbital Analysis
                       -------------------------------------

 Vector   18  Occ=2.000000D+00  E=-9.906140D+00
              MO Center=  4.5D-02, -2.7D-01, -1.0D-02, r^2= 3.9D+00
   Bfn.  Coefficient  Atom+Function         Bfn.  Coefficient  Atom+Function  
  ----- ------------  ---------------      ----- ------------  ---------------
    76      0.395523   6 H  s                26      0.380262   2 C  dxy       
    56      0.369532   4 C  dxy              87     -0.351366   9 Cl s         
    91      0.347064   9 Cl s                40      0.284473   3 C  dxx       
     8     -0.264707   1 C  py               33      0.263124   3 C  px        
    66      0.263485   5 F  s                11     -0.261806   1 C  dxy       

 Vector   19  Occ=2.000000D+00  E=-7.820308D+00
              MO Center= -4.1D-01,  2.0D-01,  3.4D-05, r^2= 3.4D+00
   Bfn.  Coefficient  Atom+Function         Bfn.  Coefficient  Atom+Function  
  ----- ------------  ---------------      ----- ------------  ---------------
    32      0.402481   3 C  s                17      0.352423   2 C  s         
    77     -0.322556   6 H  s                 4      0.312926   1 C  py        
    11     -0.272465   1 C  dxy              36      0.269351   3 C  s         
     2     -0.251700   1 C  s                56      0.245675   4 C  dxy       
    25      0.241020   2 C  dxx               7     -0.237382   1 C  px        

 Vector   20  Occ=2.000000D+00  E=-4.955529D+00
              MO Center=  1.2D-01, -8.4D-01, -5.0D-03, r^2= 3.7D+00
   Bfn.  Coefficient  Atom+Function         Bfn.  Coefficient  Atom+Function  
  ----- ------------  ---------------      ----- ------------  ---------------
    56      0.622459   4 C  dxy              41     -0.381709   3 C  dxy       
    26     -0.363696   2 C  dxy              71      0.338881   5 F  dxy       
    11      0.333910   1 C  dxy              77      0.260326   6 H  s         
    10      0.254256   1 C  dxx              66      0.243626   5 F  s         
    19     -0.232857   2 C  py               17     -0.230760   2 C  s         

 Vector   21  Occ=2.000000D+00  E=-3.288000D+00
              MO Center=  1.7D-01, -1.2D+00,  8.7D-03, r^2= 3.0D+00
   Bfn.  Coefficient  Atom+Function         Bfn.  Coefficient  Atom+Function  
  ----- ------------  ---------------      ----- ------------  ---------------
    26      0.346909   2 C  dxy              73     -0.321978   5 F  dyy       
    47      0.312572   4 C  s                81     -0.292800   8 H  s         
    66      0.286180   5 F  s                71      0.248865   5 F  dxy       
    53      0.231915   4 C  py               10     -0.228396   1 C  dxx       
    13      0.220576   1 C  dyy              43      0.220971   3 C  dyy       

 Vector   22  Occ=2.000000D+00  E=-1.367975D+00
              MO Center=  1.4D-01, -9.7D-01,  8.1D-03, r^2= 2.6D+00
   Bfn.  Coefficient  Atom+Function         Bfn.  Coefficient  Atom+Function  
  ----- ------------  ---------------      ----- ------------  ---------------
    42      0.811725   3 C  dxz              24     -0.574123   2 C  pz        
    57      0.566681   4 C  dxz              39      0.506516   3 C  pz        
    54     -0.359990   4 C  pz               12     -0.240917   1 C  dxz       
    50     -0.227557   4 C  pz               20     -0.220661   2 C  pz        
     9      0.218877   1 C  pz               72     -0.186745   5 F  dxz       

 Vector   23  Occ=2.000000D+00  E=-4.936074D-01
              MO Center= -2.4D-01, -1.8D-01, -2.2D-02, r^2= 2.3D+00
   Bfn.  Coefficient  Atom+Function         Bfn.  Coefficient  Atom+Function  
  ----- ------------  ---------------      ----- ------------  ---------------
    27      0.831423   2 C  dxz              12      0.515057   1 C  dxz       
    39      0.439347   3 C  pz               54     -0.282544   4 C  pz        
    14      0.260691   1 C  dyz              35      0.233425   3 C  pz        
    20      0.227271   2 C  pz               57      0.225691   4 C  dxz       
     5     -0.195223   1 C  pz                9     -0.189226   1 C  pz        

 Vector   24  Occ=2.000000D+00  E=-1.703287D-01
              MO Center=  2.7D-01,  2.2D+00,  2.7D-03, r^2= 7.5D-01
   Bfn.  Coefficient  Atom+Function         Bfn.  Coefficient  Atom+Function  
  ----- ------------  ---------------      ----- ------------  ---------------
    83      0.966562   9 Cl s                82     -0.266731   9 Cl s         
    85      0.197912   9 Cl py        

 Vector   25  Occ=2.000000D+00  E= 1.803005D+00
              MO Center=  1.7D-01, -1.1D+00, -3.5D-02, r^2= 4.2D+00
   Bfn.  Coefficient  Atom+Function         Bfn.  Coefficient  Atom+Function  
  ----- ------------  ---------------      ----- ------------  ---------------
    41      0.768204   3 C  dxy              52      0.521985   4 C  px        
    55      0.448069   4 C  dxx              81     -0.435762   8 H  s         
    32      0.356517   3 C  s                53     -0.358173   4 C  py        
    85     -0.265624   9 Cl py               80     -0.260266   8 H  s         
    75     -0.245733   5 F  dzz              23     -0.215902   2 C  py        

 Vector   26  Occ=2.000000D+00  E= 2.123052D+00
              MO Center=  3.2D-01,  2.4D+00,  2.3D-03, r^2= 5.7D-02
   Bfn.  Coefficient  Atom+Function         Bfn.  Coefficient  Atom+Function  
  ----- ------------  ---------------      ----- ------------  ---------------
    86      1.004066   9 Cl pz        

 Vector   27  Occ=2.000000D+00  E= 2.283539D+00
              MO Center=  3.0D-01,  1.9D+00, -5.7D-03, r^2= 1.9D+00
   Bfn.  Coefficient  Atom+Function         Bfn.  Coefficient  Atom+Function  
  ----- ------------  ---------------      ----- ------------  ---------------
    85      0.718379   9 Cl py               84      0.591624   9 Cl px        
    41      0.237018   3 C  dxy              55      0.220806   4 C  dxx       
    83     -0.194342   9 Cl s                52      0.163890   4 C  px        

 Vector   28  Occ=0.000000D+00  E= 2.922818D+00
              MO Center=  1.6D-01, -1.6D+00,  3.7D-03, r^2= 4.1D+00
   Bfn.  Coefficient  Atom+Function         Bfn.  Coefficient  Atom+Function  
  ----- ------------  ---------------      ----- ------------  ---------------
    55      0.531812   4 C  dxx              66     -0.474087   5 F  s         
    80     -0.436401   8 H  s                62      0.402344   5 F  s         
    68     -0.291429   5 F  py               73      0.282490   5 F  dyy       
    48      0.270579   4 C  px               64     -0.242640   5 F  py        
    26     -0.238014   2 C  dxy              34      0.237060   3 C  py        

 Vector   29  Occ=0.000000D+00  E= 3.984830D+00
              MO Center=  3.1D-01,  2.2D+00,  4.5D-03, r^2= 7.5D-01
   Bfn.  Coefficient  Atom+Function         Bfn.  Coefficient  Atom+Function  
  ----- ------------  ---------------      ----- ------------  ---------------
    84      0.767054   9 Cl px               85     -0.598365   9 Cl py        

 Vector   30  Occ=0.000000D+00  E= 4.389624D+00
              MO Center= -3.4D-01, -1.6D+00,  2.9D-02, r^2= 3.5D+00
   Bfn.  Coefficient  Atom+Function         Bfn.  Coefficient  Atom+Function  
  ----- ------------  ---------------      ----- ------------  ---------------
    65      0.496849   5 F  pz               69      0.395343   5 F  pz        
    12     -0.335573   1 C  dxz              59      0.320574   4 C  dyz       
    29     -0.307548   2 C  dyz              57     -0.214923   4 C  dxz       
    74      0.214555   5 F  dyz              14      0.196211   1 C  dyz       
    20     -0.181781   2 C  pz               54     -0.178320   4 C  pz        

 Vector   31  Occ=0.000000D+00  E= 4.771850D+00
              MO Center= -1.3D-01, -9.4D-01,  1.0D-02, r^2= 4.4D+00
   Bfn.  Coefficient  Atom+Function         Bfn.  Coefficient  Atom+Function  
  ----- ------------  ---------------      ----- ------------  ---------------
    74      0.611524   5 F  dyz              59      0.434381   4 C  dyz       
    29      0.358999   2 C  dyz              54     -0.355006   4 C  pz        
    12      0.316527   1 C  dxz              50     -0.300834   4 C  pz        
     9      0.280518   1 C  pz               65      0.240002   5 F  pz        
    69      0.235990   5 F  pz                5      0.230486   1 C  pz        

 Vector   32  Occ=0.000000D+00  E= 4.976381D+00
              MO Center= -1.2D-01,  8.1D-01,  9.1D-03, r^2= 5.1D+00
   Bfn.  Coefficient  Atom+Function         Bfn.  Coefficient  Atom+Function  
  ----- ------------  ---------------      ----- ------------  ---------------
    96      0.661034   9 Cl dxy              98     -0.427773   9 Cl dyy       
    26     -0.319021   2 C  dxy              73     -0.284739   5 F  dyy       
     2      0.267362   1 C  s                13      0.260381   1 C  dyy       
    95      0.261423   9 Cl dxx              11      0.242076   1 C  dxy       
    15     -0.216270   1 C  dzz              66      0.198256   5 F  s         

 Vector   33  Occ=0.000000D+00  E= 5.680908D+00
              MO Center=  3.3D-02, -1.6D+00,  1.4D-02, r^2= 4.1D+00
   Bfn.  Coefficient  Atom+Function         Bfn.  Coefficient  Atom+Function  
  ----- ------------  ---------------      ----- ------------  ---------------
    74      0.745446   5 F  dyz              59      0.486105   4 C  dyz       
    29     -0.458669   2 C  dyz              12     -0.285589   1 C  dxz       
    72     -0.285928   5 F  dxz              44     -0.276819   3 C  dyz       
    65     -0.268224   5 F  pz                9     -0.254514   1 C  pz        
    50     -0.236292   4 C  pz               97      0.221595   9 Cl dxz       

 Vector   34  Occ=0.000000D+00  E= 6.143889D+00
              MO Center= -1.1D-01, -1.0D-01,  4.7D-03, r^2= 4.7D+00
   Bfn.  Coefficient  Atom+Function         Bfn.  Coefficient  Atom+Function  
  ----- ------------  ---------------      ----- ------------  ---------------
    96      0.530585   9 Cl dxy              73      0.358160   5 F  dyy       
     4      0.308780   1 C  py               25      0.306714   2 C  dxx       
    26      0.289570   2 C  dxy              22     -0.255004   2 C  px        
    31     -0.238389   3 C  s                77     -0.230298   6 H  s         
     1     -0.219147   1 C  s                28     -0.208304   2 C  dyy       

 Vector   35  Occ=0.000000D+00  E= 8.585171D+00
              MO Center= -7.9D-01,  1.1D+00,  8.0D-04, r^2= 8.2D-01
   Bfn.  Coefficient  Atom+Function         Bfn.  Coefficient  Atom+Function  
  ----- ------------  ---------------      ----- ------------  ---------------
     1      0.918303   1 C  s                96      0.300193   9 Cl dxy       
    76      0.160049   6 H  s         

 Vector   36  Occ=0.000000D+00  E= 9.275951D+00
              MO Center= -1.7D-01, -9.2D-01,  5.1D-02, r^2= 3.5D+00
   Bfn.  Coefficient  Atom+Function         Bfn.  Coefficient  Atom+Function  
  ----- ------------  ---------------      ----- ------------  ---------------
    44      0.585127   3 C  dyz              57     -0.547691   4 C  dxz       
    72      0.406778   5 F  dxz              27      0.372568   2 C  dxz       
    29      0.339516   2 C  dyz              12      0.271643   1 C  dxz       
    76     -0.266838   6 H  s                74      0.261200   5 F  dyz       
    16     -0.202399   2 C  s                14      0.191111   1 C  dyz       

 Vector   37  Occ=0.000000D+00  E= 9.476463D+00
              MO Center= -3.0D-01, -3.2D-01, -2.1D-02, r^2= 4.4D+00
   Bfn.  Coefficient  Atom+Function         Bfn.  Coefficient  Atom+Function  
  ----- ------------  ---------------      ----- ------------  ---------------
    44      0.397819   3 C  dyz              76      0.360177   6 H  s         
    29      0.333224   2 C  dyz              99     -0.328888   9 Cl dyz       
    62     -0.318440   5 F  s                73      0.305836   5 F  dyy       
    12      0.283201   1 C  dxz              59     -0.282125   4 C  dyz       
    16      0.247358   2 C  s                 5     -0.210370   1 C  pz        


------------------------------------------------------------
EAF file 0: "./molecule.aoints.0" size=122159104 bytes
------------------------------------------------------------
               write      read    awrite     aread      wait
               -----      ----    ------     -----      ----
     calls:      211       125         0     26250     26250
   data(b): 1.11e+08  6.55e+07  0.00e+00  1.38e+10
   time(s): 0.00e+00  0.00e+00  0.00e+00  0.00e+00  0.00e+00
rate(mb/s): 0.00e+00  0.00e+00
------------------------------------------------------------


 center of mass
 --------------
 x =   0.02045777 y =   0.01666597 z =  -0.00009933

 moments of inertia (a.u.)
 ------------------
        1603.229476237826          -4.462067906803          -0.005425382931
          -4.462067906803         155.300983631904           0.064678112226
          -0.005425382931           0.064678112226        1758.519696786962

  Mulliken analysis of the total density
  --------------------------------------

    Atom       Charge   Shell Charges
 -----------   ------   -------------------------------------------------------
    1 C    6     6.87   0.05  0.57  1.02  1.40  1.82  2.02
    2 C    6     6.58   0.02  1.22  1.39  0.04  1.31  2.60
    3 C    6     9.00   0.09  1.11  1.61  1.13  2.51  2.56
    4 C    6     8.26   0.05  1.51  1.52  1.09  1.44  2.66
    5 F    9     4.62   1.99 -0.01  0.49  0.17  0.87  1.10
    6 H    1     0.63   0.46  0.17
    7 H    1     0.46   0.20  0.26
    8 H    1     0.50   0.25  0.25
    9 Cl  17    16.55   2.00  1.93  4.00  1.86 -0.18  0.48  6.05  0.40
   10 H    1     0.52   0.25  0.27

       Multipole analysis of the density wrt the origin
       ------------------------------------------------

     L   x y z        total         open         nuclear
     -   - - -        -----         ----         -------
     0   0 0 0     -0.000000      0.000000     54.000000

     1   1 0 0     -7.357815      0.000000      0.763396
     1   0 1 0    -13.325501      0.000000     -0.443814
     1   0 0 1      0.340722      0.000000     -0.030777

     2   2 0 0    -87.621275      0.000000     97.006754
     2   1 1 0     30.255160      0.000000    -12.214868
     2   1 0 1      0.089698      0.000000     -0.004786
     2   0 2 0      8.820607      0.000000    794.433394
     2   0 1 1     -1.091787      0.000000      0.001725
     2   0 0 2    -62.492577      0.000000      0.002905


 Parallel integral file used     211 records with       0 large values

 ------------------------------------------------------------------------
 driver_energy_step: energy failed                   0
 ------------------------------------------------------------------------
 ------------------------------------------------------------------------
  current input line : 
    25: task scf optimize
 ------------------------------------------------------------------------
 ------------------------------------------------------------------------
 There is an error related to the specified geometry
 ------------------------------------------------------------------------
 For more information see the NWChem manual at http://www.nwchem-sw.org/index.php/NWChem_Documentation


 For further details see manual section:                                                                                                                                                                                                                                                                
--------------------------------------------------------------------------
MPI_ABORT was invoked on rank 0 in communicator MPI COMMUNICATOR 4 DUP FROM 0 
with errorcode -1.

NOTE: invoking MPI_ABORT causes Open MPI to kill all MPI processes.
You may or may not see output from other processes, depending on
exactly when Open MPI kills them.
--------------------------------------------------------------------------
0:0:driver_energy_step: energy failed:: -1
(rank:0 hostname:evandell pid:26091):ARMCI DASSERT fail. ../../ga-5-4/armci/src/common/armci.c:ARMCI_Error():208 cond:0
