 argument  1 = mol5.nw



============================== echo of input deck ==============================
echo

start molecule

title "mol5"
charge 0

geometry units angstroms print xyz autosym
   C       -0.67453        2.93021        0.04503
   C        0.39656        2.17853       -0.22705
   C        1.79968        2.46834       -0.04269
   C        2.40556        3.64478       -0.21113
   F        3.73714        3.76486       -0.05388
   H        0.20728        1.17083       -0.59766
   H        2.42666        1.61120        0.19487
   H        1.96223        4.59202       -0.47786
  Cl       -0.68914        4.51556        0.68659
   H       -1.68396        2.57040       -0.11698
end

basis
  * library 6-31G*
end

task scf optimize
================================================================================


                                         
                                         


              Northwest Computational Chemistry Package (NWChem) 6.6
              ------------------------------------------------------


                    Environmental Molecular Sciences Laboratory
                       Pacific Northwest National Laboratory
                                Richland, WA 99352

                              Copyright (c) 1994-2015
                       Pacific Northwest National Laboratory
                            Battelle Memorial Institute

             NWChem is an open-source computational chemistry package
                        distributed under the terms of the
                      Educational Community License (ECL) 2.0
             A copy of the license is included with this distribution
                              in the LICENSE.TXT file

                                  ACKNOWLEDGMENT
                                  --------------

            This software and its documentation were developed at the
            EMSL at Pacific Northwest National Laboratory, a multiprogram
            national laboratory, operated for the U.S. Department of Energy
            by Battelle under Contract Number DE-AC05-76RL01830. Support
            for this work was provided by the Department of Energy Office
            of Biological and Environmental Research, Office of Basic
            Energy Sciences, and the Office of Advanced Scientific Computing.


           Job information
           ---------------

    hostname        = evandell
    program         = nwchem
    date            = Thu Dec  1 15:01:42 2016

    compiled        = Mon_Feb_15_08:24:17_2016
    source          = /build/nwchem-MF0R1k/nwchem-6.6+r27746
    nwchem branch   = 6.6
    nwchem revision = 27746
    ga revision     = 10594
    input           = mol5.nw
    prefix          = molecule.
    data base       = ./molecule.db
    status          = startup
    nproc           =        1
    time left       =     -1s



           Memory information
           ------------------

    heap     =   13107198 doubles =    100.0 Mbytes
    stack    =   13107195 doubles =    100.0 Mbytes
    global   =   26214400 doubles =    200.0 Mbytes (distinct from heap & stack)
    total    =   52428793 doubles =    400.0 Mbytes
    verify   = yes
    hardfail = no 


           Directory information
           ---------------------

  0 permanent = .
  0 scratch   = .




                                NWChem Input Module
                                -------------------


                                       mol5
                                       ----

 Scaling coordinates for geometry "geometry" by  1.889725989
 (inverse scale =  0.529177249)

 C1  symmetry detected

          ------
          auto-z
          ------


                             Geometry "geometry" -> ""
                             -------------------------

 Output coordinates in angstroms (scale by  1.889725989 to convert to a.u.)

  No.       Tag          Charge          X              Y              Z
 ---- ---------------- ---------- -------------- -------------- --------------
    1 C                    6.0000    -0.81499611     1.45015223    -0.10698296
    2 C                    6.0000    -1.41763661     0.25894222    -0.04273903
    3 C                    6.0000    -0.85555990    -1.04877857     0.20355408
    4 C                    6.0000     0.32314851    -1.50877832    -0.21896264
    5 F                    9.0000     0.70462513    -2.77336913     0.04091759
    6 H                    1.0000    -2.50379353     0.25301997    -0.13689877
    7 H                    1.0000    -1.50282713    -1.74298421     0.73586163
    8 H                    1.0000     1.07986934    -0.98667159    -0.78440773
    9 Cl                  17.0000     0.85566128     1.77421074     0.06342028
   10 H                    1.0000    -1.37085191     2.36615010    -0.27017496

      Atomic Mass 
      ----------- 

      C                 12.000000
      F                 18.998400
      H                  1.007825
      Cl                34.968850


 Effective nuclear repulsion energy (a.u.)     257.1711407148

            Nuclear Dipole moment (a.u.) 
            ----------------------------
        X                 Y               Z
 ---------------- ---------------- ----------------
     0.0000000000     0.0000000000     0.0000000000



                                Z-matrix (autoz)
                                -------- 

 Units are Angstrom for bonds and degrees for angles

      Type          Name      I     J     K     L     M      Value
      ----------- --------  ----- ----- ----- ----- ----- ----------
    1 Stretch                  1     2                       1.33652
    2 Stretch                  1     9                       1.71031
    3 Stretch                  1    10                       1.08382
    4 Stretch                  2     3                       1.44455
    5 Stretch                  2     6                       1.09025
    6 Stretch                  3     4                       1.33397
    7 Stretch                  3     7                       1.08822
    8 Stretch                  4     5                       1.34620
    9 Stretch                  4     8                       1.07933
   10 Bend                     1     2     3               129.76227
   11 Bend                     1     2     6               116.73736
   12 Bend                     2     1     9               127.19537
   13 Bend                     2     1    10               121.95515
   14 Bend                     2     3     4               127.01208
   15 Bend                     2     3     7               115.43368
   16 Bend                     3     2     6               113.41884
   17 Bend                     3     4     5               120.87569
   18 Bend                     3     4     8               128.21598
   19 Bend                     4     3     7               117.42056
   20 Bend                     5     4     8               110.90806
   21 Bend                     9     1    10               110.84527
   22 Torsion                  1     2     3     4         -36.82634
   23 Torsion                  1     2     3     7         147.51570
   24 Torsion                  2     3     4     5        -177.41918
   25 Torsion                  2     3     4     8           2.37274
   26 Torsion                  3     2     1     9           1.17904
   27 Torsion                  3     2     1    10        -178.00369
   28 Torsion                  4     3     2     6         146.61283
   29 Torsion                  5     4     3     7          -1.83686
   30 Torsion                  6     2     1     9         177.64523
   31 Torsion                  6     2     1    10          -1.53750
   32 Torsion                  6     2     3     7         -29.04513
   33 Torsion                  7     3     4     8         177.95506


            XYZ format geometry
            -------------------
    10
 geometry
 C                    -0.81499611     1.45015223    -0.10698296
 C                    -1.41763661     0.25894222    -0.04273903
 C                    -0.85555990    -1.04877857     0.20355408
 C                     0.32314851    -1.50877832    -0.21896264
 F                     0.70462513    -2.77336913     0.04091759
 H                    -2.50379353     0.25301997    -0.13689877
 H                    -1.50282713    -1.74298421     0.73586163
 H                     1.07986934    -0.98667159    -0.78440773
 Cl                    0.85566128     1.77421074     0.06342028
 H                    -1.37085191     2.36615010    -0.27017496

 ==============================================================================
                                internuclear distances
 ------------------------------------------------------------------------------
       center one      |      center two      | atomic units |  angstroms
 ------------------------------------------------------------------------------
    2 C                |   1 C                |     2.52566  |     1.33652
    3 C                |   2 C                |     2.72980  |     1.44455
    4 C                |   3 C                |     2.52084  |     1.33397
    5 F                |   4 C                |     2.54395  |     1.34620
    6 H                |   2 C                |     2.06027  |     1.09025
    7 H                |   3 C                |     2.05644  |     1.08822
    8 H                |   4 C                |     2.03964  |     1.07933
    9 Cl               |   1 C                |     3.23201  |     1.71031
   10 H                |   1 C                |     2.04812  |     1.08382
 ------------------------------------------------------------------------------
                         number of included internuclear distances:          9
 ==============================================================================



 ==============================================================================
                                 internuclear angles
 ------------------------------------------------------------------------------
        center 1       |       center 2       |       center 3       |  degrees
 ------------------------------------------------------------------------------
    2 C                |   1 C                |   9 Cl               |   127.20
    2 C                |   1 C                |  10 H                |   121.96
    9 Cl               |   1 C                |  10 H                |   110.85
    1 C                |   2 C                |   3 C                |   129.76
    1 C                |   2 C                |   6 H                |   116.74
    3 C                |   2 C                |   6 H                |   113.42
    2 C                |   3 C                |   4 C                |   127.01
    2 C                |   3 C                |   7 H                |   115.43
    4 C                |   3 C                |   7 H                |   117.42
    3 C                |   4 C                |   5 F                |   120.88
    3 C                |   4 C                |   8 H                |   128.22
    5 F                |   4 C                |   8 H                |   110.91
 ------------------------------------------------------------------------------
                            number of included internuclear angles:         12
 ==============================================================================





 Summary of "ao basis" -> "" (cartesian)
 ------------------------------------------------------------------------------
       Tag                 Description            Shells   Functions and Types
 ---------------- ------------------------------  ------  ---------------------
 *                           6-31G*                   on all atoms 




                           NWChem Geometry Optimization
                           ----------------------------




                                       mol5


 maximum gradient threshold         (gmax) =   0.000450
 rms gradient threshold             (grms) =   0.000300
 maximum cartesian step threshold   (xmax) =   0.001800
 rms cartesian step threshold       (xrms) =   0.001200
 fixed trust radius                (trust) =   0.300000
 maximum step size to saddle      (sadstp) =   0.100000
 energy precision                  (eprec) =   1.0D-07
 maximum number of steps          (nptopt) =   20
 initial hessian option           (inhess) =    0
 line search option               (linopt) =    1
 hessian update option            (modupd) =    1
 saddle point option              (modsad) =    0
 initial eigen-mode to follow     (moddir) =    0
 initial variable to follow       (vardir) =    0
 follow first negative mode     (firstneg) =    T
 apply conjugacy                    (opcg) =    F
 source of zmatrix                         =   autoz   


          -------------------
          Energy Minimization
          -------------------


 Names of Z-matrix variables 
    1              2              3              4              5         
    6              7              8              9             10         
   11             12             13             14             15         
   16             17             18             19             20         
   21             22             23             24             25         
   26             27             28             29             30         
   31             32             33         

 Variables with the same non-blank name are constrained to be equal


 Using old Hessian from previous optimization

          --------
          Step   0
          --------


                         Geometry "geometry" -> "geometry"
                         ---------------------------------

 Output coordinates in angstroms (scale by  1.889725989 to convert to a.u.)

  No.       Tag          Charge          X              Y              Z
 ---- ---------------- ---------- -------------- -------------- --------------
    1 C                    6.0000    -0.81499611     1.45015223    -0.10698296
    2 C                    6.0000    -1.41763661     0.25894222    -0.04273903
    3 C                    6.0000    -0.85555990    -1.04877857     0.20355408
    4 C                    6.0000     0.32314851    -1.50877832    -0.21896264
    5 F                    9.0000     0.70462513    -2.77336913     0.04091759
    6 H                    1.0000    -2.50379353     0.25301997    -0.13689877
    7 H                    1.0000    -1.50282713    -1.74298421     0.73586163
    8 H                    1.0000     1.07986934    -0.98667159    -0.78440773
    9 Cl                  17.0000     0.85566128     1.77421074     0.06342028
   10 H                    1.0000    -1.37085191     2.36615010    -0.27017496

      Atomic Mass 
      ----------- 

      C                 12.000000
      F                 18.998400
      H                  1.007825
      Cl                34.968850


 Effective nuclear repulsion energy (a.u.)     257.1711407148

            Nuclear Dipole moment (a.u.) 
            ----------------------------
        X                 Y               Z
 ---------------- ---------------- ----------------
     0.0000000000     0.0000000000     0.0000000000

                      Basis "ao basis" -> "ao basis" (cartesian)
                      -----
  C (Carbon)
  ----------
            Exponent  Coefficients 
       -------------- ---------------------------------------------------------
  1 S  3.04752490E+03  0.001835
  1 S  4.57369510E+02  0.014037
  1 S  1.03948690E+02  0.068843
  1 S  2.92101550E+01  0.232184
  1 S  9.28666300E+00  0.467941
  1 S  3.16392700E+00  0.362312

  2 S  7.86827240E+00 -0.119332
  2 S  1.88128850E+00 -0.160854
  2 S  5.44249300E-01  1.143456

  3 P  7.86827240E+00  0.068999
  3 P  1.88128850E+00  0.316424
  3 P  5.44249300E-01  0.744308

  4 S  1.68714400E-01  1.000000

  5 P  1.68714400E-01  1.000000

  6 D  8.00000000E-01  1.000000

  F (Fluorine)
  ------------
            Exponent  Coefficients 
       -------------- ---------------------------------------------------------
  1 S  7.00171309E+03  0.001820
  1 S  1.05136609E+03  0.013916
  1 S  2.39285690E+02  0.068405
  1 S  6.73974453E+01  0.233186
  1 S  2.15199573E+01  0.471267
  1 S  7.40310130E+00  0.356619

  2 S  2.08479528E+01 -0.108507
  2 S  4.80830834E+00 -0.146452
  2 S  1.34406986E+00  1.128689

  3 P  2.08479528E+01  0.071629
  3 P  4.80830834E+00  0.345912
  3 P  1.34406986E+00  0.722470

  4 S  3.58151393E-01  1.000000

  5 P  3.58151393E-01  1.000000

  6 D  8.00000000E-01  1.000000

  H (Hydrogen)
  ------------
            Exponent  Coefficients 
       -------------- ---------------------------------------------------------
  1 S  1.87311370E+01  0.033495
  1 S  2.82539370E+00  0.234727
  1 S  6.40121700E-01  0.813757

  2 S  1.61277800E-01  1.000000

  Cl (Chlorine)
  -------------
            Exponent  Coefficients 
       -------------- ---------------------------------------------------------
  1 S  2.51801000E+04  0.001833
  1 S  3.78035000E+03  0.014034
  1 S  8.60474000E+02  0.069097
  1 S  2.42145000E+02  0.237452
  1 S  7.73349000E+01  0.483034
  1 S  2.62470000E+01  0.339856

  2 S  4.91765000E+02 -0.002297
  2 S  1.16984000E+02 -0.030714
  2 S  3.74153000E+01 -0.112528
  2 S  1.37834000E+01  0.045016
  2 S  5.45215000E+00  0.589353
  2 S  2.22588000E+00  0.465206

  3 P  4.91765000E+02  0.003989
  3 P  1.16984000E+02  0.030318
  3 P  3.74153000E+01  0.129880
  3 P  1.37834000E+01  0.327951
  3 P  5.45215000E+00  0.453527
  3 P  2.22588000E+00  0.252154

  4 S  3.18649000E+00 -0.251830
  4 S  1.14427000E+00  0.061589
  4 S  4.20377000E-01  1.060180

  5 P  3.18649000E+00 -0.014299
  5 P  1.14427000E+00  0.323572
  5 P  4.20377000E-01  0.743507

  6 S  1.42657000E-01  1.000000

  7 P  1.42657000E-01  1.000000

  8 D  7.50000000E-01  1.000000



 Summary of "ao basis" -> "ao basis" (cartesian)
 ------------------------------------------------------------------------------
       Tag                 Description            Shells   Functions and Types
 ---------------- ------------------------------  ------  ---------------------
 C                           6-31G*                  6       15   3s2p1d
 F                           6-31G*                  6       15   3s2p1d
 H                           6-31G*                  2        2   2s
 Cl                          6-31G*                  8       19   4s3p1d


                                 NWChem SCF Module
                                 -----------------


                                       mol5



  ao basis        = "ao basis"
  functions       =   102
  atoms           =    10
  closed shells   =    27
  open shells     =     0
  charge          =   0.00
  wavefunction    = RHF 
  input vectors   = atomic
  output vectors  = ./molecule.movecs
  use symmetry    = F
  symmetry adapt  = F


 Summary of "ao basis" -> "ao basis" (cartesian)
 ------------------------------------------------------------------------------
       Tag                 Description            Shells   Functions and Types
 ---------------- ------------------------------  ------  ---------------------
 C                           6-31G*                  6       15   3s2p1d
 F                           6-31G*                  6       15   3s2p1d
 H                           6-31G*                  2        2   2s
 Cl                          6-31G*                  8       19   4s3p1d



 Forming initial guess at       0.2s


      Superposition of Atomic Density Guess
      -------------------------------------

 Sum of atomic energies:        -711.45686149

      Non-variational initial energy
      ------------------------------

 Total energy =    -714.351205
 1-e energy   =   -1489.785206
 2-e energy   =     518.262860
 HOMO         =      -0.223677
 LUMO         =       0.007608


 Starting SCF solution at       1.4s



 ----------------------------------------------
         Quadratically convergent ROHF

 Convergence threshold     :          1.000E-04
 Maximum no. of iterations :           30
 Final Fock-matrix accuracy:          1.000E-07
 ----------------------------------------------


 Integral file          = ./molecule.aoints.0
 Record size in doubles =    65536    No. of integs per rec  =    43688
 Max. records in memory =        0    Max. records in file   =  1613038
 No. of bits per label  =        8    No. of bits per value  =       64


 #quartets = 4.604D+05 #integrals = 1.016D+07 #direct =  0.0% #cached =100.0%


              iter       energy          gnorm     gmax       time
             ----- ------------------- --------- --------- --------
                 1     -712.5798789027  1.01D+00  1.42D-01      2.6
                 2     -749.0450112547  5.99D+02  7.72D+01      3.8
  Setting level-shift to 254.59 to force positive preconditioner
                 3     -828.5652036794  3.50D+02  8.71D+01      4.5
  Setting level-shift to 952.32 to force positive preconditioner
                 4     -962.4139912889  1.59D+03  3.21D+02      6.3
  Setting level-shift to ****** to force positive preconditioner
                 5     -729.7221467471  7.32D+03  2.85D+03     11.8
  Setting level-shift to ****** to force positive preconditioner
                 6     -783.5647814929  1.01D+04  4.53D+03     16.7
  Setting level-shift to ****** to force positive preconditioner
                 7    -3707.3378639029  3.26D+03  1.54D+03     21.6
  Setting level-shift to ****** to force positive preconditioner
                 8    -4165.8311404429  6.96D+03  2.61D+03     22.2
  Setting level-shift to ****** to force positive preconditioner
                 9    -5239.2674243530  7.01D+03  3.33D+03     27.2
  Setting level-shift to ****** to force positive preconditioner
                10    -7672.5664300293  6.33D+03  2.66D+03     31.9
  Setting level-shift to ****** to force positive preconditioner
                11    -8440.9166537930  4.64D+03  2.93D+03     32.2
  Setting level-shift to ****** to force positive preconditioner
                12    -9646.2438949066  2.70D+03  9.93D+02     34.8
  Setting level-shift to 998.08 to force positive preconditioner
                13   -10556.8612269302  1.60D+03  5.04D+02     35.8
  Setting level-shift to 497.28 to force positive preconditioner
                14   -11929.4343754828  1.08D+03  4.01D+02     36.7
  Setting level-shift to 368.94 to force positive preconditioner
                15   -12838.6956298381  1.70D+03  7.25D+02     38.5
  Setting level-shift to 280.12 to force positive preconditioner
                16   -13338.1874254856  1.35D+03  5.61D+02     39.9
  Setting level-shift to 153.16 to force positive preconditioner
                17   -13432.6331369999  1.51D+03  5.80D+02     40.1
  Setting level-shift to 141.05 to force positive preconditioner
                18   -13535.3803788171  1.12D+03  4.05D+02     40.7
  Setting level-shift to  65.30 to force positive preconditioner
                19   -13574.9134726916  8.20D+02  2.75D+02     40.9
  Setting level-shift to 106.39 to force positive preconditioner
                20   -13657.9627061973  1.27D+03  4.99D+02     41.4
                21   -13723.3543377572  1.31D+03  4.67D+02     41.5
                22   -13790.6058120274  1.33D+03  4.05D+02     41.7
                23   -13868.4018322361  1.64D+03  6.52D+02     41.9
                24   -13950.8796209791  1.40D+03  4.42D+02     42.1
                25   -14034.7385689170  1.82D+03  7.51D+02     42.3
                26   -14109.5256686876  1.36D+03  3.89D+02     42.4
                27   -14175.2486408732  1.35D+03  5.46D+02     42.7
                28   -14224.2902653785  9.15D+02  2.48D+02     42.9
                29   -14258.5740336913  1.12D+03  4.22D+02     43.1
                30   -14282.5165885097  5.90D+02  1.66D+02     43.4

      Calculation failed to converge
      ------------------------------



       Final RHF  results 
       ------------------ 

         Total SCF energy = -14282.516588509679
      One-electron energy =   -951.106609796743
      Two-electron energy = -13588.581119427761
 Nuclear repulsion energy =    257.171140714825

        Time for solution =     42.7s


             Final eigenvalues
             -----------------

              1      
    1 *********
    2 *********
    3 *********
    4 *********
    5 *********
    6 *********
    7 -289.1757
    8 -191.8062
    9 -148.0083
   10 -135.4849
   11 -126.6208
   12 -119.4595
   13 -118.2944
   14 -108.0785
   15 -103.0656
   16  -93.6784
   17  -86.3496
   18  -81.5336
   19  -80.0780
   20  -76.0059
   21  -72.4308
   22  -71.6958
   23  -71.1457
   24  -68.1468
   25  -64.3562
   26  -62.6624
   27  -59.4404
   28  -42.2277
   29  -38.2251
   30  -31.7197
   31  -30.1984
   32  -19.7937
   33  -16.2012
   34  -15.5870
   35  -15.2890
   36  -14.7663
   37  -13.4847

                       ROHF Final Molecular Orbital Analysis
                       -------------------------------------

 Vector   18  Occ=2.000000D+00  E=-8.153358D+01
              MO Center= -6.7D-01,  8.4D-01, -5.2D-02, r^2= 2.9D+00
   Bfn.  Coefficient  Atom+Function         Bfn.  Coefficient  Atom+Function  
  ----- ------------  ---------------      ----- ------------  ---------------
    27      0.994615   2 C  dxz              12      0.934828   1 C  dxz       
    29      0.652508   2 C  dyz              94     -0.575432   9 Cl pz        
    14      0.411342   1 C  dyz              90      0.407223   9 Cl pz        
    28      0.289767   2 C  dyy              25     -0.251310   2 C  dxx       
    26     -0.200669   2 C  dxy              47      0.197128   4 C  s         

 Vector   19  Occ=2.000000D+00  E=-8.007796D+01
              MO Center= -6.9D-01,  9.1D-01, -1.3D-02, r^2= 2.8D+00
   Bfn.  Coefficient  Atom+Function         Bfn.  Coefficient  Atom+Function  
  ----- ------------  ---------------      ----- ------------  ---------------
    25      0.592517   2 C  dxx              93     -0.582838   9 Cl py        
    26      0.568157   2 C  dxy              30     -0.478133   2 C  dzz       
    89      0.454251   9 Cl py               10     -0.423306   1 C  dxx       
    27      0.308600   2 C  dxz              11     -0.301066   1 C  dxy       
    51      0.259004   4 C  s                88     -0.246526   9 Cl px        

 Vector   20  Occ=2.000000D+00  E=-7.600587D+01
              MO Center= -6.8D-01,  9.0D-01, -1.2D-03, r^2= 2.7D+00
   Bfn.  Coefficient  Atom+Function         Bfn.  Coefficient  Atom+Function  
  ----- ------------  ---------------      ----- ------------  ---------------
    30      0.598381   2 C  dzz              12      0.591899   1 C  dxz       
    10      0.483270   1 C  dxx              15     -0.415626   1 C  dzz       
    28     -0.413229   2 C  dyy              26      0.396536   2 C  dxy       
    92      0.379174   9 Cl px               94     -0.370353   9 Cl pz        
    29      0.330186   2 C  dyz              90      0.262399   9 Cl pz        

 Vector   21  Occ=2.000000D+00  E=-7.243080D+01
              MO Center= -2.8D-01,  1.1D+00,  1.8D-02, r^2= 3.4D+00
   Bfn.  Coefficient  Atom+Function         Bfn.  Coefficient  Atom+Function  
  ----- ------------  ---------------      ----- ------------  ---------------
    94      0.826895   9 Cl pz               27      0.776395   2 C  dxz       
    90     -0.608129   9 Cl pz               11     -0.562230   1 C  dxy       
    15     -0.435898   1 C  dzz              13      0.431380   1 C  dyy       
    29     -0.317829   2 C  dyz              25     -0.272619   2 C  dxx       
    93     -0.272590   9 Cl py               26     -0.258374   2 C  dxy       

 Vector   22  Occ=2.000000D+00  E=-7.169583D+01
              MO Center= -1.1D+00,  7.5D-01, -7.9D-02, r^2= 1.4D+00
   Bfn.  Coefficient  Atom+Function         Bfn.  Coefficient  Atom+Function  
  ----- ------------  ---------------      ----- ------------  ---------------
    29      1.091873   2 C  dyz              14     -0.947778   1 C  dyz       
    27     -0.502103   2 C  dxz              26     -0.326074   2 C  dxy       
    94      0.259321   9 Cl pz               13      0.230947   1 C  dyy       
    15     -0.179780   1 C  dzz              90     -0.180073   9 Cl pz        
    11     -0.171180   1 C  dxy              12      0.157923   1 C  dxz       

 Vector   23  Occ=2.000000D+00  E=-7.114572D+01
              MO Center= -4.8D-01,  9.7D-01, -4.2D-02, r^2= 3.1D+00
   Bfn.  Coefficient  Atom+Function         Bfn.  Coefficient  Atom+Function  
  ----- ------------  ---------------      ----- ------------  ---------------
    94      0.665400   9 Cl pz               11      0.661160   1 C  dxy       
    26      0.602377   2 C  dxy              13     -0.561853   1 C  dyy       
    27      0.550559   2 C  dxz              90     -0.492989   9 Cl pz        
    29      0.460323   2 C  dyz              15      0.395785   1 C  dzz       
    51      0.278177   4 C  s                10      0.213481   1 C  dxx       

 Vector   24  Occ=2.000000D+00  E=-6.814682D+01
              MO Center= -9.8D-01,  9.1D-01, -8.9D-02, r^2= 1.6D+00
   Bfn.  Coefficient  Atom+Function         Bfn.  Coefficient  Atom+Function  
  ----- ------------  ---------------      ----- ------------  ---------------
    11      0.648876   1 C  dxy              30     -0.569671   2 C  dzz       
    10      0.556992   1 C  dxx              15     -0.558370   1 C  dzz       
    26      0.357681   2 C  dxy              51      0.349129   4 C  s         
    28      0.244395   2 C  dyy              25      0.235560   2 C  dxx       
    81     -0.223402   8 H  s                95     -0.186640   9 Cl dxx       

 Vector   25  Occ=2.000000D+00  E=-6.435624D+01
              MO Center= -8.0D-01,  1.1D+00, -5.6D-02, r^2= 1.9D+00
   Bfn.  Coefficient  Atom+Function         Bfn.  Coefficient  Atom+Function  
  ----- ------------  ---------------      ----- ------------  ---------------
    12      1.207830   1 C  dxz              27     -0.609132   2 C  dxz       
    11      0.426318   1 C  dxy              25      0.254865   2 C  dxx       
    94      0.250527   9 Cl pz               10     -0.228308   1 C  dxx       
    90     -0.228174   9 Cl pz               13      0.225557   1 C  dyy       
    28     -0.210132   2 C  dyy              47     -0.206911   4 C  s         

 Vector   26  Occ=2.000000D+00  E=-6.266236D+01
              MO Center= -9.0D-01,  1.1D+00, -8.1D-02, r^2= 1.5D+00
   Bfn.  Coefficient  Atom+Function         Bfn.  Coefficient  Atom+Function  
  ----- ------------  ---------------      ----- ------------  ---------------
    14      1.467130   1 C  dyz              29      1.028407   2 C  dyz       
    94      0.246717   9 Cl pz               90     -0.226215   9 Cl pz        
    27     -0.190814   2 C  dxz              12     -0.155213   1 C  dxz       
    15     -0.152480   1 C  dzz       

 Vector   27  Occ=2.000000D+00  E=-5.944041D+01
              MO Center= -6.6D-01,  4.3D-01, -4.8D-02, r^2= 3.6D+00
   Bfn.  Coefficient  Atom+Function         Bfn.  Coefficient  Atom+Function  
  ----- ------------  ---------------      ----- ------------  ---------------
    11      0.596157   1 C  dxy              12     -0.571349   1 C  dxz       
    27      0.563929   2 C  dxz              28     -0.559945   2 C  dyy       
    13      0.472044   1 C  dyy              47     -0.417797   4 C  s         
    67      0.304682   5 F  px               51     -0.298355   4 C  s         
    41     -0.279259   3 C  dxy              53      0.268408   4 C  py        

 Vector   28  Occ=0.000000D+00  E=-4.222769D+01
              MO Center= -2.4D-01, -1.2D+00,  2.5D-02, r^2= 4.4D+00
   Bfn.  Coefficient  Atom+Function         Bfn.  Coefficient  Atom+Function  
  ----- ------------  ---------------      ----- ------------  ---------------
    53      0.674493   4 C  py               11     -0.493407   1 C  dxy       
    67      0.480427   5 F  px               52      0.452409   4 C  px        
    22     -0.389485   2 C  px               23     -0.362555   2 C  py        
    63     -0.341172   5 F  px               21     -0.312871   2 C  s         
    49     -0.314230   4 C  py               62      0.286412   5 F  s         

 Vector   29  Occ=0.000000D+00  E=-3.822513D+01
              MO Center=  2.5D-01, -1.6D+00,  7.2D-03, r^2= 3.1D+00
   Bfn.  Coefficient  Atom+Function         Bfn.  Coefficient  Atom+Function  
  ----- ------------  ---------------      ----- ------------  ---------------
    68      1.007552   5 F  py               38      0.667695   3 C  py        
    58     -0.575143   4 C  dyy              54      0.560049   4 C  pz        
    73      0.550749   5 F  dyy              81      0.543589   8 H  s         
    49      0.466546   4 C  py               64     -0.371720   5 F  py        
    47     -0.352236   4 C  s                53     -0.300083   4 C  py        

 Vector   30  Occ=0.000000D+00  E=-3.171966D+01
              MO Center=  6.4D-02, -1.2D+00, -8.9D-02, r^2= 3.3D+00
   Bfn.  Coefficient  Atom+Function         Bfn.  Coefficient  Atom+Function  
  ----- ------------  ---------------      ----- ------------  ---------------
    51      1.363769   4 C  s                81     -0.977238   8 H  s         
    56     -0.460519   4 C  dxy              33     -0.390960   3 C  px        
    67     -0.361760   5 F  px               66     -0.329677   5 F  s         
    26     -0.321620   2 C  dxy              52      0.278877   4 C  px        
    38      0.274766   3 C  py               62      0.275700   5 F  s         

 Vector   31  Occ=0.000000D+00  E=-3.019837D+01
              MO Center=  7.0D-01, -2.8D+00,  4.1D-02, r^2= 6.1D-02
   Bfn.  Coefficient  Atom+Function         Bfn.  Coefficient  Atom+Function  
  ----- ------------  ---------------      ----- ------------  ---------------
    61      1.003049   5 F  s         

 Vector   32  Occ=0.000000D+00  E=-1.979368D+01
              MO Center= -2.1D-01, -1.4D+00, -5.7D-03, r^2= 3.5D+00
   Bfn.  Coefficient  Atom+Function         Bfn.  Coefficient  Atom+Function  
  ----- ------------  ---------------      ----- ------------  ---------------
    56      0.701058   4 C  dxy              59      0.513172   4 C  dyz       
    73     -0.474737   5 F  dyy              33     -0.369473   3 C  px        
    23      0.350248   2 C  py               37      0.326831   3 C  px        
    51     -0.309395   4 C  s                74      0.302718   5 F  dyz       
    32      0.271505   3 C  s                17     -0.267250   2 C  s         

 Vector   33  Occ=0.000000D+00  E=-1.620120D+01
              MO Center=  4.6D-01, -1.5D+00, -2.6D-01, r^2= 2.2D+00
   Bfn.  Coefficient  Atom+Function         Bfn.  Coefficient  Atom+Function  
  ----- ------------  ---------------      ----- ------------  ---------------
    71      0.615020   5 F  dxy              56      0.592093   4 C  dxy       
    57     -0.578800   4 C  dxz              80      0.349620   8 H  s         
    51      0.311692   4 C  s                59     -0.303168   4 C  dyz       
    58     -0.259018   4 C  dyy              68      0.212139   5 F  py        
    55      0.198142   4 C  dxx              38      0.190707   3 C  py        

 Vector   34  Occ=0.000000D+00  E=-1.558696D+01
              MO Center=  4.5D-01,  4.7D-01, -3.7D-02, r^2= 4.4D+00
   Bfn.  Coefficient  Atom+Function         Bfn.  Coefficient  Atom+Function  
  ----- ------------  ---------------      ----- ------------  ---------------
    83      0.770895   9 Cl s                71     -0.359475   5 F  dxy       
    23     -0.278643   2 C  py               51      0.272058   4 C  s         
    73     -0.233995   5 F  dyy              58      0.232637   4 C  dyy       
    59      0.228807   4 C  dyz              82     -0.211169   9 Cl s         
    17      0.195997   2 C  s                 7      0.185739   1 C  px        

 Vector   35  Occ=0.000000D+00  E=-1.528901D+01
              MO Center=  4.2D-01, -1.8D+00, -9.4D-02, r^2= 2.6D+00
   Bfn.  Coefficient  Atom+Function         Bfn.  Coefficient  Atom+Function  
  ----- ------------  ---------------      ----- ------------  ---------------
    71      0.725510   5 F  dxy              74      0.631344   5 F  dyz       
    57      0.512700   4 C  dxz              59      0.385257   4 C  dyz       
    58     -0.347499   4 C  dyy              68     -0.347502   5 F  py        
    83      0.302119   9 Cl s                73      0.280179   5 F  dyy       
    81     -0.268446   8 H  s                64      0.240036   5 F  py        

 Vector   36  Occ=0.000000D+00  E=-1.476634D+01
              MO Center=  1.2D-01, -1.8D-01, -6.5D-02, r^2= 5.2D+00
   Bfn.  Coefficient  Atom+Function         Bfn.  Coefficient  Atom+Function  
  ----- ------------  ---------------      ----- ------------  ---------------
    83     -0.562703   9 Cl s                51      0.528138   4 C  s         
    59      0.486521   4 C  dyz              23     -0.421429   2 C  py        
    57      0.273370   4 C  dxz              32     -0.241796   3 C  s         
    74      0.236709   5 F  dyz              85     -0.236667   9 Cl py        
    17      0.234821   2 C  s                33      0.230889   3 C  px        

 Vector   37  Occ=0.000000D+00  E=-1.348466D+01
              MO Center=  8.6D-01,  1.8D+00,  6.3D-02, r^2= 6.0D-02
   Bfn.  Coefficient  Atom+Function         Bfn.  Coefficient  Atom+Function  
  ----- ------------  ---------------      ----- ------------  ---------------
    86      1.015883   9 Cl pz        

 Vector   38  Occ=0.000000D+00  E=-1.344856D+01
              MO Center=  8.0D-01,  1.6D+00,  5.7D-02, r^2= 7.4D-01
   Bfn.  Coefficient  Atom+Function         Bfn.  Coefficient  Atom+Function  
  ----- ------------  ---------------      ----- ------------  ---------------
    84      0.984633   9 Cl px        

 Vector   39  Occ=0.000000D+00  E=-1.330100D+01
              MO Center=  8.6D-01,  1.7D+00,  6.3D-02, r^2= 2.2D-01
   Bfn.  Coefficient  Atom+Function         Bfn.  Coefficient  Atom+Function  
  ----- ------------  ---------------      ----- ------------  ---------------
    85      0.966760   9 Cl py               83     -0.278954   9 Cl s         

 Vector   40  Occ=0.000000D+00  E=-1.233142D+01
              MO Center=  3.7D-01, -1.9D+00, -1.0D-01, r^2= 1.8D+00
   Bfn.  Coefficient  Atom+Function         Bfn.  Coefficient  Atom+Function  
  ----- ------------  ---------------      ----- ------------  ---------------
    59      0.662441   4 C  dyz              57     -0.592907   4 C  dxz       
    72      0.478345   5 F  dxz              70     -0.423035   5 F  dxx       
    75      0.371434   5 F  dzz              74     -0.334060   5 F  dyz       
    56     -0.311443   4 C  dxy              55      0.298083   4 C  dxx       
    71      0.242040   5 F  dxy              35     -0.199514   3 C  pz        

 Vector   41  Occ=0.000000D+00  E=-1.146652D+01
              MO Center=  5.1D-01, -2.6D+00, -4.9D-02, r^2= 1.2D+00
   Bfn.  Coefficient  Atom+Function         Bfn.  Coefficient  Atom+Function  
  ----- ------------  ---------------      ----- ------------  ---------------
    70      0.614150   5 F  dxx              71      0.415252   5 F  dxy       
    75      0.395780   5 F  dzz              60     -0.294511   4 C  dzz       
    74     -0.270661   5 F  dyz              54      0.258562   4 C  pz        
    56      0.187341   4 C  dxy       

 Vector   42  Occ=0.000000D+00  E=-1.108859D+01
              MO Center=  5.0D-01, -2.1D+00, -8.7D-02, r^2= 1.4D+00
   Bfn.  Coefficient  Atom+Function         Bfn.  Coefficient  Atom+Function  
  ----- ------------  ---------------      ----- ------------  ---------------
    74      0.916097   5 F  dyz              55     -0.480670   4 C  dxx       
    57     -0.471890   4 C  dxz              60      0.456413   4 C  dzz       
    72      0.445248   5 F  dxz              59      0.424010   4 C  dyz       
    71     -0.390936   5 F  dxy              56     -0.270486   4 C  dxy       
    47     -0.251276   4 C  s                75      0.248662   5 F  dzz       

 Vector   43  Occ=0.000000D+00  E=-9.173984D+00
              MO Center=  7.1D-01, -2.8D+00,  1.1D-02, r^2= 6.5D-01
   Bfn.  Coefficient  Atom+Function         Bfn.  Coefficient  Atom+Function  
  ----- ------------  ---------------      ----- ------------  ---------------
    72      1.303655   5 F  dxz              75     -0.640155   5 F  dzz       
    73      0.336338   5 F  dyy              70      0.310503   5 F  dxx       
    71      0.199327   5 F  dxy       

 Vector   44  Occ=0.000000D+00  E=-8.368298D+00
              MO Center=  4.1D-01, -2.0D+00, -6.7D-02, r^2= 2.0D+00
   Bfn.  Coefficient  Atom+Function         Bfn.  Coefficient  Atom+Function  
  ----- ------------  ---------------      ----- ------------  ---------------
    51      0.511655   4 C  s                74     -0.485041   5 F  dyz       
    71      0.444058   5 F  dxy              55     -0.375074   4 C  dxx       
    59     -0.363810   4 C  dyz              67     -0.342208   5 F  px        
    70     -0.331622   5 F  dxx              72      0.319990   5 F  dxz       
    81     -0.297563   8 H  s                73     -0.280966   5 F  dyy       

 Vector   45  Occ=0.000000D+00  E=-7.067847D+00
              MO Center=  4.6D-01, -2.1D+00, -4.2D-02, r^2= 1.6D+00
   Bfn.  Coefficient  Atom+Function         Bfn.  Coefficient  Atom+Function  
  ----- ------------  ---------------      ----- ------------  ---------------
    59      0.642234   4 C  dyz              72     -0.645184   5 F  dxz       
    74     -0.587751   5 F  dyz              75     -0.489903   5 F  dzz       
    57     -0.386479   4 C  dxz              51      0.351315   4 C  s         
    60      0.347620   4 C  dzz              70      0.349175   5 F  dxx       
    55     -0.331936   4 C  dxx              56     -0.298629   4 C  dxy       

 Vector   46  Occ=0.000000D+00  E=-5.162555D+00
              MO Center= -4.9D-01,  8.7D-01, -2.0D-02, r^2= 2.8D+00
   Bfn.  Coefficient  Atom+Function         Bfn.  Coefficient  Atom+Function  
  ----- ------------  ---------------      ----- ------------  ---------------
     3      0.311179   1 C  px              101     -0.298891  10 H  s         
    32      0.246448   3 C  s                17      0.240139   2 C  s         
    33     -0.233776   3 C  px               95      0.215813   9 Cl dxx       
    88     -0.213939   9 Cl px               71      0.178266   5 F  dxy       
    96      0.178105   9 Cl dxy              56     -0.167322   4 C  dxy       

 Vector   47  Occ=0.000000D+00  E=-4.320201D+00
              MO Center=  3.2D-01, -1.7D+00, -2.0D-01, r^2= 2.5D+00
   Bfn.  Coefficient  Atom+Function         Bfn.  Coefficient  Atom+Function  
  ----- ------------  ---------------      ----- ------------  ---------------
    74      0.636659   5 F  dyz              60     -0.571830   4 C  dzz       
    57     -0.567368   4 C  dxz              75     -0.307022   5 F  dzz       
    72     -0.281331   5 F  dxz              81     -0.263084   8 H  s         
    71     -0.258301   5 F  dxy              32     -0.251004   3 C  s         
    51      0.250313   4 C  s                67     -0.244682   5 F  px        

 Vector   48  Occ=0.000000D+00  E=-3.124090D+00
              MO Center=  4.3D-01, -1.7D+00, -1.4D-01, r^2= 1.1D+00
   Bfn.  Coefficient  Atom+Function         Bfn.  Coefficient  Atom+Function  
  ----- ------------  ---------------      ----- ------------  ---------------
    46      0.824775   4 C  s                71     -0.332431   5 F  dxy       
    58     -0.291052   4 C  dyy              69      0.278822   5 F  pz        
    56      0.229267   4 C  dxy              65     -0.215875   5 F  pz        
    74     -0.202730   5 F  dyz              63      0.196211   5 F  px        

 Vector   49  Occ=0.000000D+00  E=-2.679665D+00
              MO Center=  4.7D-01, -1.3D+00, -1.4D-02, r^2= 3.9D+00
   Bfn.  Coefficient  Atom+Function         Bfn.  Coefficient  Atom+Function  
  ----- ------------  ---------------      ----- ------------  ---------------
    46      0.528136   4 C  s                69     -0.406897   5 F  pz        
    65      0.402578   5 F  pz               74      0.396916   5 F  dyz       
    71      0.343242   5 F  dxy              56     -0.335510   4 C  dxy       
    58      0.229267   4 C  dyy              87     -0.218715   9 Cl s         
     3      0.214575   1 C  px               80      0.201345   8 H  s         

 Vector   50  Occ=0.000000D+00  E=-2.320624D+00
              MO Center= -9.7D-02, -2.9D-01, -2.4D-03, r^2= 5.1D+00
   Bfn.  Coefficient  Atom+Function         Bfn.  Coefficient  Atom+Function  
  ----- ------------  ---------------      ----- ------------  ---------------
    87      0.655563   9 Cl s                65      0.422989   5 F  pz        
    17     -0.390791   2 C  s                69     -0.298008   5 F  pz        
    51     -0.291788   4 C  s                57      0.277704   4 C  dxz       
    64     -0.268474   5 F  py               68      0.226259   5 F  py        
    77      0.224862   6 H  s                74     -0.217037   5 F  dyz       

 Vector   51  Occ=0.000000D+00  E=-1.849182D+00
              MO Center=  3.7D-01, -1.7D+00,  5.0D-02, r^2= 4.4D+00
   Bfn.  Coefficient  Atom+Function         Bfn.  Coefficient  Atom+Function  
  ----- ------------  ---------------      ----- ------------  ---------------
    56      0.597062   4 C  dxy              64     -0.535637   5 F  py        
    73      0.466712   5 F  dyy              74     -0.357908   5 F  dyz       
    65      0.317616   5 F  pz               70     -0.310724   5 F  dxx       
    87     -0.304503   9 Cl s                55     -0.232280   4 C  dxx       
    17      0.213938   2 C  s                 4     -0.200767   1 C  py        

 Vector   52  Occ=0.000000D+00  E=-9.881923D-01
              MO Center= -1.8D-01,  2.8D-02, -1.8D-02, r^2= 6.2D+00
   Bfn.  Coefficient  Atom+Function         Bfn.  Coefficient  Atom+Function  
  ----- ------------  ---------------      ----- ------------  ---------------
    89      0.447068   9 Cl py               63     -0.381213   5 F  px        
    71      0.382251   5 F  dxy               3     -0.356538   1 C  px        
   101      0.318193  10 H  s                32      0.294640   3 C  s         
    73      0.220171   5 F  dyy              58      0.216427   4 C  dyy       
    68     -0.198950   5 F  py               70     -0.189856   5 F  dxx       

 Vector   53  Occ=0.000000D+00  E=-6.535041D-01
              MO Center=  5.5D-01, -1.5D+00,  4.8D-02, r^2= 4.4D+00
   Bfn.  Coefficient  Atom+Function         Bfn.  Coefficient  Atom+Function  
  ----- ------------  ---------------      ----- ------------  ---------------
    65      0.608261   5 F  pz               63      0.488505   5 F  px        
    71     -0.425776   5 F  dxy              89      0.323021   9 Cl py        
    88     -0.249804   9 Cl px               55      0.179526   4 C  dxx       
    58     -0.168343   4 C  dyy              69     -0.160032   5 F  pz        
    76      0.160728   6 H  s                54     -0.150823   4 C  pz        

 Vector   54  Occ=0.000000D+00  E=-1.384981D-01
              MO Center=  5.6D-01,  8.6D-02,  5.2D-02, r^2= 4.8D+00
   Bfn.  Coefficient  Atom+Function         Bfn.  Coefficient  Atom+Function  
  ----- ------------  ---------------      ----- ------------  ---------------
    65      0.396889   5 F  pz               64      0.387709   5 F  py        
    88      0.342889   9 Cl px               89     -0.321263   9 Cl py        
    98      0.268263   9 Cl dyy              63      0.224839   5 F  px        
    95     -0.206322   9 Cl dxx              87      0.202242   9 Cl s         
     2     -0.192013   1 C  s               100      0.188161   9 Cl dzz       

 Vector   55  Occ=0.000000D+00  E= 1.246054D+00
              MO Center=  6.5D-01, -2.2D+00, -1.1D-01, r^2= 2.3D+00
   Bfn.  Coefficient  Atom+Function         Bfn.  Coefficient  Atom+Function  
  ----- ------------  ---------------      ----- ------------  ---------------
    54      0.494326   4 C  pz               63     -0.385724   5 F  px        
    65      0.378413   5 F  pz               64      0.319401   5 F  py        
    59     -0.211895   4 C  dyz              74     -0.205870   5 F  dyz       
    69      0.187844   5 F  pz               50     -0.175423   4 C  pz        
    72      0.169146   5 F  dxz              56      0.156604   4 C  dxy       


------------------------------------------------------------
EAF file 0: "./molecule.aoints.0" size=122159104 bytes
------------------------------------------------------------
               write      read    awrite     aread      wait
               -----      ----    ------     -----      ----
     calls:      233       172         0     39904     39904
   data(b): 1.22e+08  9.02e+07  0.00e+00  2.09e+10
   time(s): 0.00e+00  0.00e+00  0.00e+00  0.00e+00  0.00e+00
rate(mb/s): 0.00e+00  0.00e+00
------------------------------------------------------------


 center of mass
 --------------
 x =   0.10333876 y =  -0.01676471 z =   0.00988289

 moments of inertia (a.u.)
 ------------------
        1196.880533586130          -0.000000000000          -0.000000000000
          -0.000000000000         325.556816502522          -0.000000000000
          -0.000000000000          -0.000000000000        1503.441701262774

  Mulliken analysis of the total density
  --------------------------------------

    Atom       Charge   Shell Charges
 -----------   ------   -------------------------------------------------------
    1 C    6    13.62   0.00  0.47  0.03  2.14 -0.04 11.01
    2 C    6    13.77   0.00  0.43  0.36  1.96  0.28 10.74
    3 C    6    14.71   0.00  0.33  0.42  1.18  1.23 11.56
    4 C    6     2.76  -0.00  0.55  0.16  0.35  1.41  0.29
    5 F    9     0.37  -0.00  0.03  0.01 -0.01  0.41 -0.08
    6 H    1     0.31  -0.02  0.32
    7 H    1     0.25  -0.08  0.34
    8 H    1     0.18   0.11  0.07
    9 Cl  17     7.69   2.00  0.00  0.02  0.06  0.57  0.05  5.07 -0.08
   10 H    1     0.34  -0.07  0.42

       Multipole analysis of the density wrt the origin
       ------------------------------------------------

     L   x y z        total         open         nuclear
     -   - - -        -----         ----         -------
     0   0 0 0      0.000000      0.000000     54.000000

     1   1 0 0     67.052654      0.000000      0.000000
     1   0 1 0    -27.184682      0.000000      0.000000
     1   0 0 1     -1.151959      0.000000      0.000000

     2   2 0 0   -138.841439      0.000000    176.945768
     2   1 1 0    -10.352848      0.000000     -3.350092
     2   1 0 1      5.609000      0.000000     -2.287517
     2   0 2 0    183.242136      0.000000    591.687636
     2   0 1 1     13.275218      0.000000     -2.096103
     2   0 0 2    -82.289347      0.000000      6.955981


 Parallel integral file used     233 records with       0 large values

 ------------------------------------------------------------------------
 scf_gradient: scf energy failed                   0
 ------------------------------------------------------------------------
 ------------------------------------------------------------------------
  current input line : 
    25: task scf optimize
 ------------------------------------------------------------------------
 ------------------------------------------------------------------------
 This type of error is most commonly associated with calculations not reaching convergence criteria
 ------------------------------------------------------------------------
 For more information see the NWChem manual at http://www.nwchem-sw.org/index.php/NWChem_Documentation


 For further details see manual section:                                                                                                                                                                                                                                                                
--------------------------------------------------------------------------
MPI_ABORT was invoked on rank 0 in communicator MPI COMMUNICATOR 4 DUP FROM 0 
with errorcode -1.

NOTE: invoking MPI_ABORT causes Open MPI to kill all MPI processes.
You may or may not see output from other processes, depending on
exactly when Open MPI kills them.
--------------------------------------------------------------------------
0:0:scf_gradient: scf energy failed:: -1
(rank:0 hostname:evandell pid:26095):ARMCI DASSERT fail. ../../ga-5-4/armci/src/common/armci.c:ARMCI_Error():208 cond:0
